********************************************************************************
*                       GENERAL UTILITY LATTICE PROGRAM                        *
*                                 Julian Gale                                  *
*                       Curtin Institute for Computation                       *
*                           Department of Chemistry                            *
*                    Curtin University, Western Australia                      *
********************************************************************************
* Version = 5.1.1 * Last modified =  11th January 2019                         *
********************************************************************************
*  optimise     - perform optimisation run                                     *
*  conp         - constant pressure calculation                                *
*  property     - calculate properties for final geometry                      *
*  defect       - perform defect calculation after bulk run                    *
*  regi_before  - output region 1 at start of defect calculation               *
*  nodsym       - symmetry not to be used in defect calculation                *
********************************************************************************
* BaSnO3 with fixed r2-r1=12.0 (unique)                                        *
********************************************************************************


  Job Started  at 17:13.02  5th January    2024                               

  Number of CPUs =     1

  Host name      = login01                                 


  Total number of configurations input =      1

********************************************************************************
*  Input for Configuration =   1                                               *
********************************************************************************

  Formula = BaSnO3                                                      

  Number of irreducible atoms/shells =      10


  Total number atoms/shells =      10

  Dimensionality = 3               :  Bulk   



  Cartesian lattice vectors (Angstroms) :

        4.123773    0.000000    0.000000
        0.000000    4.123773    0.000000
        0.000000    0.000000    4.123773

  Cell parameters (Angstroms/Degrees):

  a =       4.1238    alpha =  90.0000
  b =       4.1238    beta  =  90.0000
  c =       4.1238    gamma =  90.0000

  Initial cell volume =          70.126837 Angs**3

  Temperature of configuration =  0.000     K 

  Pressure of configuration =         0.000 GPa 

  Fractional coordinates of asymmetric unit :

--------------------------------------------------------------------------------
   No.  Atomic       x           y          z         Charge      Occupancy
        Label      (Frac)      (Frac)     (Frac)        (e)         (Frac)  
--------------------------------------------------------------------------------
      1 Ba    c    0.500000    0.500000    0.500000    -7.20300    1.000000    
      2 Sn    c    0.000000 *  0.000000 *  0.000000 *   2.42000    1.000000    
      3 O     c    0.500000 *  0.000000 *  0.000000 *   0.38900    1.000000    
      4 O     c    0.000000 *  0.500000 *  0.000000 *   0.38900    1.000000    
      5 O     c    0.000000 *  0.000000 *  0.500000 *   0.38900    1.000000    
      6 Ba    s    0.500000 *  0.500000 *  0.500000 *   9.20300    1.000000    
      7 Sn    s    0.000000 *  0.000000 *  0.000000 *   1.58000    1.000000    
      8 O     s    0.500000 *  0.000000 *  0.000000 *  -2.38900    1.000000    
      9 O     s    0.000000 *  0.500000 *  0.000000 *  -2.38900    1.000000    
     10 O     s    0.000000 *  0.000000 *  0.500000 *  -2.38900    1.000000    
--------------------------------------------------------------------------------



********************************************************************************
*  General input information                                                   *
********************************************************************************

  Species output for all configurations : 

--------------------------------------------------------------------------------
  Species    Type    Atomic    Atomic    Charge       Radii (Angs)     Library
                     Number     Mass       (e)     Cova   Ionic  VDW   Symbol
--------------------------------------------------------------------------------
    Ba       Core       56     137.33  -7.203000   1.340  0.000  2.000          
    Ba       Shell      56       0.00   9.203000   1.340  0.000  2.000          
    Sn       Core       50     118.71   2.420000   1.460  0.000  2.180          
    Sn       Shell      50       0.00   1.580000   1.460  0.000  2.180          
    O        Core        8      16.00   0.389000   0.730  0.000  1.360          
    O        Shell       8       0.00  -2.389000   0.730  0.000  1.360          
--------------------------------------------------------------------------------


  Lattice summation method               =    Ewald          (3-D)
                                         =    Parry          (2-D)
                                         =    Saunders et al (1-D)
  Accuracy factor for lattice sums       =   18.000


  Time limit = Infinity

  Maximum range for interatomic potentials =    100000.000000 Angstroms

  General interatomic potentials :

--------------------------------------------------------------------------------
Atom  Types   Potential      Parameter       Value         Units   Cutoffs(Ang)
  1     2                                                            Min /  Max 
--------------------------------------------------------------------------------
O    s O    s Buckingham    Buckingham A     9547.9600    eV        0.000 12.000
                            Buckingham rho  0.21920000    Ang       
                            Buckingham C     32.000000    eV*Ang^6  
--------------------------------------------------------------------------------
O    s Ba   s Buckingham    Buckingham A     873.82901    eV        0.000 12.000
                            Buckingham rho  0.38630000    Ang       
                            Buckingham C     0.0000000    eV*Ang^6  
--------------------------------------------------------------------------------
O    s Sn   s Buckingham    Buckingham A     1056.8000    eV        0.000 12.000
                            Buckingham rho  0.36830000    Ang       
                            Buckingham C     0.0000000    eV*Ang^6  
--------------------------------------------------------------------------------
Ba   c Ba   s Spring (c-s)  Spring k 2       459.20000    eV*Ang^-2 0.000  0.800
                            Spring k 4       0.0000000    eV*Ang^-4 
--------------------------------------------------------------------------------
Sn   c Sn   s Spring (c-s)  Spring k 2       2037.8000    eV*Ang^-2 0.000  0.800
                            Spring k 4       0.0000000    eV*Ang^-4 
--------------------------------------------------------------------------------
O    c O    s Spring (c-s)  Spring k 2       23.090000    eV*Ang^-2 0.000  0.800
                            Spring k 4       0.0000000    eV*Ang^-4 
--------------------------------------------------------------------------------

********************************************************************************
*  Output for configuration   1                                                *
********************************************************************************


  Components of energy : 

--------------------------------------------------------------------------------
  Interatomic potentials     =          28.56792554 eV    
  Monopole - monopole (real) =         -40.61315151 eV    
  Monopole - monopole (recip)=        -132.26983619 eV    
  Monopole - monopole (total)=        -172.88298770 eV    
--------------------------------------------------------------------------------
  Total lattice energy       =        -144.31506216 eV    
--------------------------------------------------------------------------------
  Total lattice energy       =          -13924.1974 kJ/(mole unit cells)
--------------------------------------------------------------------------------


  Number of variables =       33

  Maximum number of calculations  =          1000
  Maximum Hessian update interval =            10
  Maximum step size               =   1.000000000
  Maximum parameter tolerance     =   0.000000010
  Maximum function  tolerance     =   0.000000000
  Maximum gradient  tolerance     =   0.000001000
  Maximum gradient  component     =   0.010000000

  Symmetry not applied to optimisation

  Cell parameters to be optimised using strains

  Newton-Raphson optimiser to be used

  BFGS hessian update to be used

  Lower half triangular hessian to be used

  Dumpfile to be written after every cycle

  Start of bulk optimisation :

  Cycle:      0 Energy:      -144.315062  Gnorm:      0.000001  CPU:    0.670
  ** Hessian calculated **

  XYZ File written as 1.xyz



  **** Optimisation achieved ****


  Final energy =    -144.31506216 eV
  Final Gnorm  =       0.00000042

  Components of energy : 

--------------------------------------------------------------------------------
  Interatomic potentials     =          28.56793457 eV    
  Monopole - monopole (real) =         -40.61315364 eV    
  Monopole - monopole (recip)=        -132.26984310 eV    
  Monopole - monopole (total)=        -172.88299673 eV    
--------------------------------------------------------------------------------
  Total lattice energy       =        -144.31506216 eV    
--------------------------------------------------------------------------------
  Total lattice energy       =          -13924.1974 kJ/(mole unit cells)
--------------------------------------------------------------------------------

  Final fractional coordinates of atoms :

--------------------------------------------------------------------------------
   No.  Atomic        x           y          z          Radius
        Label       (Frac)      (Frac)     (Frac)       (Angs) 
--------------------------------------------------------------------------------
     1  Ba    c     0.500000    0.500000    0.500000    0.000000
     2  Sn    c     1.000000    0.000000    0.000000    0.000000
     3  O     c     0.500000    0.000000    0.000000    0.000000
     4  O     c     1.000000    0.500000    0.000000    0.000000
     5  O     c     1.000000    0.000000    0.500000    0.000000
     6  Ba    s     0.500000    0.500000    0.500000    0.000000
     7  Sn    s     1.000000    0.000000    0.000000    0.000000
     8  O     s     0.500000    0.000000    0.000000    0.000000
     9  O     s     1.000000    0.500000    0.000000    0.000000
    10  O     s     1.000000    0.000000    0.500000    0.000000
--------------------------------------------------------------------------------

  Final Cartesian lattice vectors (Angstroms) :

        4.123773    0.000000    0.000000
        0.000000    4.123773    0.000000
        0.000000    0.000000    4.123773


  Final cell parameters and derivatives :

--------------------------------------------------------------------------------
       a            4.123773 Angstrom     dE/de1(xx)     0.000008 eV/strain
       b            4.123773 Angstrom     dE/de2(yy)     0.000008 eV/strain
       c            4.123773 Angstrom     dE/de3(zz)     0.000008 eV/strain
       alpha       90.000000 Degrees      dE/de4(yz)     0.000000 eV/strain
       beta        90.000000 Degrees      dE/de5(xz)    -0.000000 eV/strain
       gamma       90.000000 Degrees      dE/de6(xy)    -0.000000 eV/strain
--------------------------------------------------------------------------------

  Primitive cell volume =            70.126826 Angs**3

  Density of cell =      7.199503 g/cm**3

  Non-primitive cell volume =            70.126826 Angs**3


  Final internal derivatives :

--------------------------------------------------------------------------------
   No.  Atomic          a             b             c           Radius
        Label          (eV)          (eV)          (eV)        (eV/Angs)
--------------------------------------------------------------------------------
      1 Ba    c       0.000000      0.000000      0.000000      0.000000
      2 Sn    c      -0.000000     -0.000000     -0.000000      0.000000
      3 O     c       0.000000      0.000000     -0.000000      0.000000
      4 O     c       0.000000     -0.000000     -0.000000      0.000000
      5 O     c       0.000000     -0.000000     -0.000000      0.000000
      6 Ba    s      -0.000000     -0.000000      0.000000      0.000000
      7 Sn    s      -0.000000     -0.000000     -0.000000      0.000000
      8 O     s       0.000000      0.000000     -0.000000      0.000000
      9 O     s       0.000000      0.000000     -0.000000      0.000000
     10 O     s       0.000000     -0.000000      0.000000      0.000000
--------------------------------------------------------------------------------
  Maximum abs         0.000000      0.000000      0.000000      0.000000
--------------------------------------------------------------------------------


  Born effective charge tensors : 

-------------------------------------------------------------------------------
  Atom             x           y             z
-------------------------------------------------------------------------------
    1 Ba    x       2.6343      0.0000      0.0000
            y       0.0000      2.6343      0.0000
            z       0.0000      0.0000      2.6343
-------------------------------------------------------------------------------
    2 Sn    x       3.6962      0.0000      0.0000
            y       0.0000      3.6962      0.0000
            z       0.0000     -0.0000      3.6962
-------------------------------------------------------------------------------
    3 O     x      -2.2262     -0.0000     -0.0000
            y      -0.0000     -2.0522      0.0000
            z      -0.0000      0.0000     -2.0522
-------------------------------------------------------------------------------
    4 O     x      -2.0522     -0.0000     -0.0000
            y      -0.0000     -2.2262      0.0000
            z      -0.0000      0.0000     -2.0522
-------------------------------------------------------------------------------
    5 O     x      -2.0522     -0.0000      0.0000
            y      -0.0000     -2.0522     -0.0000
            z       0.0000     -0.0000     -2.2262
-------------------------------------------------------------------------------




  Elastic Constant Matrix: (Units=GPa)

-------------------------------------------------------------------------------
  Indices      1         2         3         4         5         6    
-------------------------------------------------------------------------------
       1    280.3259  137.6414  137.6414   -0.0000   -0.0000   -0.0000
       2    137.6414  280.3259  137.6414    0.0000    0.0000   -0.0000
       3    137.6414  137.6414  280.3259    0.0000    0.0000   -0.0000
       4     -0.0000    0.0000    0.0000  137.6414   -0.0000    0.0000
       5     -0.0000    0.0000    0.0000   -0.0000  137.6414   -0.0000
       6     -0.0000   -0.0000   -0.0000    0.0000   -0.0000  137.6414
-------------------------------------------------------------------------------

  Elastic Constant Tensor Eigenvalues: (Units=GPa)

-------------------------------------------------------------------------------
     1 =   137.6414     2 =   137.6414     3 =   137.6414
     4 =   142.6845     5 =   142.6845     6 =   555.6086
-------------------------------------------------------------------------------


  Elastic Compliance Matrix: (Units=1/GPa)

-------------------------------------------------------------------------------
  Indices      1         2         3         4         5         6    
-------------------------------------------------------------------------------
       1    0.005272 -0.001736 -0.001736  0.000000  0.000000  0.000000
       2   -0.001736  0.005272 -0.001736 -0.000000  0.000000  0.000000
       3   -0.001736 -0.001736  0.005272 -0.000000 -0.000000 -0.000000
       4    0.000000 -0.000000 -0.000000  0.007265  0.000000 -0.000000
       5    0.000000  0.000000 -0.000000  0.000000  0.007265  0.000000
       6    0.000000  0.000000 -0.000000 -0.000000  0.000000  0.007265
-------------------------------------------------------------------------------

  Mechanical properties :

-------------------------------------------------------------------------------
  Convention :                    Reuss         Voigt         Hill
-------------------------------------------------------------------------------
  Bulk  Modulus (GPa)     =     185.20287     185.20287     185.20287
  Shear Modulus (GPa)     =     100.34187     111.12173     105.73180
-------------------------------------------------------------------------------
  Velocity S-wave (km/s)  =       3.73327       3.92869       3.83223
  Velocity P-wave (km/s)  =       6.65639       6.80470       6.73095
-------------------------------------------------------------------------------
  Compressibility (1/GPa) =    0.00539948
-------------------------------------------------------------------------------
  Stress axis :                     x             y             z
-------------------------------------------------------------------------------
  Youngs Moduli (GPa)     =     189.67214     189.67214     189.67214
-------------------------------------------------------------------------------
  Poissons Ratio (x)      =                     0.32931       0.32931
  Poissons Ratio (y)      =       0.32931                     0.32931
  Poissons Ratio (z)      =       0.32931       0.32931
-------------------------------------------------------------------------------


  Piezoelectric Strain Matrix: (Units=C/m**2)

-------------------------------------------------------------------------------
  Indices      1         2         3         4         5         6    
-------------------------------------------------------------------------------
       x     0.00000   0.00000   0.00000   0.00000   0.00000   0.00000
       y     0.00000   0.00000   0.00000   0.00000   0.00000   0.00000
       z     0.00000   0.00000   0.00000   0.00000   0.00000   0.00000
-------------------------------------------------------------------------------


  Piezoelectric Stress Matrix: (Units=10**-11 C/N)

-------------------------------------------------------------------------------
  Indices      1         2         3         4         5         6    
-------------------------------------------------------------------------------
       x     0.00000  -0.00000  -0.00000   0.00000   0.00000   0.00000
       y     0.00000  -0.00000   0.00000   0.00000   0.00000   0.00000
       z    -0.00000  -0.00000   0.00000   0.00000   0.00000   0.00000
-------------------------------------------------------------------------------


  Static dielectric constant tensor : 

-------------------------------------------------------------------------------
              x         y         z
-------------------------------------------------------------------------------
       x    23.64275   0.00000  -0.00000
       y     0.00000  23.64275  -0.00000
       z    -0.00000  -0.00000  23.64275
--------------------------------------------------------------------------------

  High frequency dielectric constant tensor : 

-------------------------------------------------------------------------------
              x         y         z
-------------------------------------------------------------------------------
       x     4.24078   0.00000   0.00000
       y     0.00000   4.24078   0.00000
       z     0.00000   0.00000   4.24078
-------------------------------------------------------------------------------

  Static refractive indices : 

-------------------------------------------------------------------------------
    1 =    4.86238      2 =    4.86238      3 =    4.86238
-------------------------------------------------------------------------------

  High frequency refractive indices : 

-------------------------------------------------------------------------------
    1 =    2.05932      2 =    2.05932      3 =    2.05932
-------------------------------------------------------------------------------


  Time to end of optimisation =       0.7404 seconds

********************************************************************************
*  Defect calculation for configuration   1 :                                  *
********************************************************************************

  Total number of defects =      1

  Total charge on defect  =   2.00

  Defect centre is at   0.5000   0.0000   0.0000  Frac

  Region 1 radius =  10.0000      Number of ions =    568

  Region 2 radius =  22.0000      Number of ions =   5696

  Region 2a mode = 4 : screened electrostatics due to region 1 
                       neglect correction to region 1 forces from 2a
                       region 2a displacements based on defects only

  Region 2a ions will only interact with defects in region 1

  At end move all region 2a ions into region 1

  Vacancies:

--------------------------------------------------------------------------------
    Specification type     Symbol/Number         x          y          z
--------------------------------------------------------------------------------
    Fractional                               0.500000   0.000000   0.000000
--------------------------------------------------------------------------------


  Region 1 (Absolute coordinates) :

--------------------------------------------------------------------------------
   No.   Atomic       x            y             z         Charge   Occupancy
         Label      (Angs)       (Angs)        (Angs)        (e)    
--------------------------------------------------------------------------------
     1  Sn    c      4.1238 *     0.0000 *     0.0000 *    2.42000    1.00000
     2  Sn    c     -0.0000 *     0.0000 *     0.0000 *    2.42000    1.00000
     3  O     c      4.1238 *    -2.0619 *     0.0000 *    0.38900    1.00000
     4  O     c      4.1238 *     0.0000 *    -2.0619 *    0.38900    1.00000
     5  O     c      4.1238 *     0.0000 *     2.0619 *    0.38900    1.00000
     6  O     c      4.1238 *     2.0619 *     0.0000 *    0.38900    1.00000
     7  Ba    c      2.0619 *    -2.0619 *    -2.0619 *   -7.20300    1.00000
     8  Ba    c      2.0619 *    -2.0619 *     2.0619 *   -7.20300    1.00000
     9  Ba    c      2.0619 *     2.0619 *    -2.0619 *   -7.20300    1.00000
    10  Ba    c      2.0619 *     2.0619 *     2.0619 *   -7.20300    1.00000
    11  O     c     -0.0000 *    -2.0619 *     0.0000 *    0.38900    1.00000
    12  O     c     -0.0000 *     0.0000 *    -2.0619 *    0.38900    1.00000
    13  O     c     -0.0000 *     0.0000 *     2.0619 *    0.38900    1.00000
    14  O     c     -0.0000 *     2.0619 *     0.0000 *    0.38900    1.00000
    15  O     c      2.0619 *    -4.1238 *     0.0000 *    0.38900    1.00000
    16  O     c      2.0619 *     0.0000 *     4.1238 *    0.38900    1.00000
    17  O     c      2.0619 *     0.0000 *    -4.1238 *    0.38900    1.00000
    18  O     c      6.1857 *     0.0000 *     0.0000 *    0.38900    1.00000
    19  O     c      2.0619 *     4.1238 *     0.0000 *    0.38900    1.00000
    20  O     c     -2.0619 *     0.0000 *     0.0000 *    0.38900    1.00000
    21  Sn    c      4.1238 *     0.0000 *     4.1238 *    2.42000    1.00000
    22  Sn    c      4.1238 *     0.0000 *    -4.1238 *    2.42000    1.00000
    23  Sn    c      4.1238 *     4.1238 *     0.0000 *    2.42000    1.00000
    24  Sn    c      4.1238 *    -4.1238 *     0.0000 *    2.42000    1.00000
    25  Sn    c     -0.0000 *     0.0000 *     4.1238 *    2.42000    1.00000
    26  Sn    c     -0.0000 *     0.0000 *    -4.1238 *    2.42000    1.00000
    27  Sn    c     -0.0000 *     4.1238 *     0.0000 *    2.42000    1.00000
    28  Sn    c     -0.0000 *    -4.1238 *     0.0000 *    2.42000    1.00000
    29  O     c      4.1238 *    -4.1238 *    -2.0619 *    0.38900    1.00000
    30  O     c      4.1238 *    -4.1238 *     2.0619 *    0.38900    1.00000
    31  O     c      4.1238 *    -2.0619 *     4.1238 *    0.38900    1.00000
    32  O     c      4.1238 *    -2.0619 *    -4.1238 *    0.38900    1.00000
    33  O     c      4.1238 *     2.0619 *     4.1238 *    0.38900    1.00000
    34  O     c      4.1238 *     2.0619 *    -4.1238 *    0.38900    1.00000
    35  O     c      4.1238 *     4.1238 *    -2.0619 *    0.38900    1.00000
    36  O     c      4.1238 *     4.1238 *     2.0619 *    0.38900    1.00000
    37  Ba    c     -2.0619 *    -2.0619 *    -2.0619 *   -7.20300    1.00000
    38  Ba    c     -2.0619 *    -2.0619 *     2.0619 *   -7.20300    1.00000
    39  Ba    c     -2.0619 *     2.0619 *    -2.0619 *   -7.20300    1.00000
    40  Ba    c     -2.0619 *     2.0619 *     2.0619 *   -7.20300    1.00000
    41  O     c     -0.0000 *    -4.1238 *    -2.0619 *    0.38900    1.00000
    42  O     c     -0.0000 *    -4.1238 *     2.0619 *    0.38900    1.00000
    43  O     c     -0.0000 *    -2.0619 *     4.1238 *    0.38900    1.00000
    44  O     c     -0.0000 *    -2.0619 *    -4.1238 *    0.38900    1.00000
    45  Ba    c      6.1857 *    -2.0619 *    -2.0619 *   -7.20300    1.00000
    46  Ba    c      6.1857 *    -2.0619 *     2.0619 *   -7.20300    1.00000
    47  Ba    c      6.1857 *     2.0619 *    -2.0619 *   -7.20300    1.00000
    48  Ba    c      6.1857 *     2.0619 *     2.0619 *   -7.20300    1.00000
    49  O     c     -0.0000 *     2.0619 *     4.1238 *    0.38900    1.00000
    50  O     c     -0.0000 *     2.0619 *    -4.1238 *    0.38900    1.00000
    51  O     c     -0.0000 *     4.1238 *    -2.0619 *    0.38900    1.00000
    52  O     c     -0.0000 *     4.1238 *     2.0619 *    0.38900    1.00000
    53  O     c      2.0619 *    -4.1238 *     4.1238 *    0.38900    1.00000
    54  O     c      2.0619 *    -4.1238 *    -4.1238 *    0.38900    1.00000
    55  O     c      6.1857 *    -4.1238 *     0.0000 *    0.38900    1.00000
    56  O     c      6.1857 *     0.0000 *     4.1238 *    0.38900    1.00000
    57  O     c      6.1857 *     0.0000 *    -4.1238 *    0.38900    1.00000
    58  O     c      2.0619 *     4.1238 *     4.1238 *    0.38900    1.00000
    59  O     c      2.0619 *     4.1238 *    -4.1238 *    0.38900    1.00000
    60  O     c      6.1857 *     4.1238 *     0.0000 *    0.38900    1.00000
    61  O     c     -2.0619 *    -4.1238 *     0.0000 *    0.38900    1.00000
    62  O     c     -2.0619 *     0.0000 *     4.1238 *    0.38900    1.00000
    63  O     c     -2.0619 *     0.0000 *    -4.1238 *    0.38900    1.00000
    64  O     c     -2.0619 *     4.1238 *     0.0000 *    0.38900    1.00000
    65  Sn    c      4.1238 *     4.1238 *     4.1238 *    2.42000    1.00000
    66  Sn    c      4.1238 *     4.1238 *    -4.1238 *    2.42000    1.00000
    67  Sn    c      4.1238 *    -4.1238 *     4.1238 *    2.42000    1.00000
    68  Sn    c      4.1238 *    -4.1238 *    -4.1238 *    2.42000    1.00000
    69  Sn    c      8.2475 *     0.0000 *     0.0000 *    2.42000    1.00000
    70  Sn    c     -0.0000 *     4.1238 *     4.1238 *    2.42000    1.00000
    71  Sn    c     -0.0000 *     4.1238 *    -4.1238 *    2.42000    1.00000
    72  Sn    c     -0.0000 *    -4.1238 *     4.1238 *    2.42000    1.00000
    73  Sn    c     -0.0000 *    -4.1238 *    -4.1238 *    2.42000    1.00000
    74  Sn    c     -4.1238 *     0.0000 *     0.0000 *    2.42000    1.00000
    75  O     c      8.2475 *    -2.0619 *     0.0000 *    0.38900    1.00000
    76  O     c      4.1238 *    -6.1857 *     0.0000 *    0.38900    1.00000
    77  O     c      8.2475 *     2.0619 *     0.0000 *    0.38900    1.00000
    78  O     c      8.2475 *     0.0000 *    -2.0619 *    0.38900    1.00000
    79  O     c      8.2475 *     0.0000 *     2.0619 *    0.38900    1.00000
    80  O     c      4.1238 *     0.0000 *     6.1857 *    0.38900    1.00000
    81  O     c      4.1238 *     0.0000 *    -6.1857 *    0.38900    1.00000
    82  Ba    c      2.0619 *    -2.0619 *     6.1857 *   -7.20300    1.00000
    83  Ba    c      2.0619 *    -2.0619 *    -6.1857 *   -7.20300    1.00000
    84  Ba    c      2.0619 *     2.0619 *     6.1857 *   -7.20300    1.00000
    85  Ba    c      2.0619 *     2.0619 *    -6.1857 *   -7.20300    1.00000
    86  Ba    c      2.0619 *     6.1857 *    -2.0619 *   -7.20300    1.00000
    87  Ba    c      2.0619 *     6.1857 *     2.0619 *   -7.20300    1.00000
    88  Ba    c      2.0619 *    -6.1857 *    -2.0619 *   -7.20300    1.00000
    89  Ba    c      2.0619 *    -6.1857 *     2.0619 *   -7.20300    1.00000
    90  O     c     -0.0000 *    -6.1857 *     0.0000 *    0.38900    1.00000
    91  O     c      4.1238 *     6.1857 *     0.0000 *    0.38900    1.00000
    92  O     c     -0.0000 *     0.0000 *     6.1857 *    0.38900    1.00000
    93  O     c     -0.0000 *     0.0000 *    -6.1857 *    0.38900    1.00000
    94  O     c     -0.0000 *     6.1857 *     0.0000 *    0.38900    1.00000
    95  O     c     -4.1238 *    -2.0619 *     0.0000 *    0.38900    1.00000
    96  O     c     -4.1238 *     2.0619 *     0.0000 *    0.38900    1.00000
    97  O     c     -4.1238 *     0.0000 *    -2.0619 *    0.38900    1.00000
    98  O     c     -4.1238 *     0.0000 *     2.0619 *    0.38900    1.00000
    99  O     c      6.1857 *    -4.1238 *     4.1238 *    0.38900    1.00000
   100  O     c      6.1857 *    -4.1238 *    -4.1238 *    0.38900    1.00000
   101  O     c      6.1857 *     4.1238 *     4.1238 *    0.38900    1.00000
   102  O     c      6.1857 *     4.1238 *    -4.1238 *    0.38900    1.00000
   103  O     c     -2.0619 *    -4.1238 *     4.1238 *    0.38900    1.00000
   104  O     c     -2.0619 *    -4.1238 *    -4.1238 *    0.38900    1.00000
   105  O     c     -2.0619 *     4.1238 *     4.1238 *    0.38900    1.00000
   106  O     c     -2.0619 *     4.1238 *    -4.1238 *    0.38900    1.00000
   107  Sn    c      8.2475 *     0.0000 *     4.1238 *    2.42000    1.00000
   108  Sn    c      8.2475 *     0.0000 *    -4.1238 *    2.42000    1.00000
   109  Sn    c      8.2475 *     4.1238 *     0.0000 *    2.42000    1.00000
   110  Sn    c      8.2475 *    -4.1238 *     0.0000 *    2.42000    1.00000
   111  Sn    c     -4.1238 *     0.0000 *     4.1238 *    2.42000    1.00000
   112  Sn    c     -4.1238 *     0.0000 *    -4.1238 *    2.42000    1.00000
   113  Sn    c     -4.1238 *     4.1238 *     0.0000 *    2.42000    1.00000
   114  Sn    c     -4.1238 *    -4.1238 *     0.0000 *    2.42000    1.00000
   115  O     c      8.2475 *    -2.0619 *     4.1238 *    0.38900    1.00000
   116  O     c      8.2475 *    -2.0619 *    -4.1238 *    0.38900    1.00000
   117  O     c      8.2475 *    -4.1238 *    -2.0619 *    0.38900    1.00000
   118  O     c      8.2475 *    -4.1238 *     2.0619 *    0.38900    1.00000
   119  O     c      4.1238 *    -6.1857 *     4.1238 *    0.38900    1.00000
   120  O     c      4.1238 *    -6.1857 *    -4.1238 *    0.38900    1.00000
   121  O     c      8.2475 *     2.0619 *     4.1238 *    0.38900    1.00000
   122  O     c      8.2475 *     2.0619 *    -4.1238 *    0.38900    1.00000
   123  O     c      4.1238 *    -4.1238 *     6.1857 *    0.38900    1.00000
   124  O     c      4.1238 *    -4.1238 *    -6.1857 *    0.38900    1.00000
   125  O     c      8.2475 *     4.1238 *    -2.0619 *    0.38900    1.00000
   126  O     c      8.2475 *     4.1238 *     2.0619 *    0.38900    1.00000
   127  O     c     -0.0000 *    -6.1857 *     4.1238 *    0.38900    1.00000
   128  O     c     -0.0000 *    -6.1857 *    -4.1238 *    0.38900    1.00000
   129  O     c      4.1238 *     6.1857 *     4.1238 *    0.38900    1.00000
   130  O     c      4.1238 *     6.1857 *    -4.1238 *    0.38900    1.00000
   131  O     c      4.1238 *     4.1238 *     6.1857 *    0.38900    1.00000
   132  O     c      4.1238 *     4.1238 *    -6.1857 *    0.38900    1.00000
   133  Ba    c     -2.0619 *    -2.0619 *     6.1857 *   -7.20300    1.00000
   134  Ba    c     -2.0619 *    -2.0619 *    -6.1857 *   -7.20300    1.00000
   135  Ba    c     -2.0619 *     2.0619 *     6.1857 *   -7.20300    1.00000
   136  Ba    c     -2.0619 *     2.0619 *    -6.1857 *   -7.20300    1.00000
   137  O     c     -0.0000 *    -4.1238 *     6.1857 *    0.38900    1.00000
   138  O     c     -0.0000 *    -4.1238 *    -6.1857 *    0.38900    1.00000
   139  Ba    c      6.1857 *    -2.0619 *     6.1857 *   -7.20300    1.00000
   140  Ba    c      6.1857 *    -2.0619 *    -6.1857 *   -7.20300    1.00000
   141  Ba    c      6.1857 *     2.0619 *     6.1857 *   -7.20300    1.00000
   142  Ba    c      6.1857 *     2.0619 *    -6.1857 *   -7.20300    1.00000
   143  Ba    c      6.1857 *     6.1857 *    -2.0619 *   -7.20300    1.00000
   144  Ba    c      6.1857 *     6.1857 *     2.0619 *   -7.20300    1.00000
   145  Ba    c      6.1857 *    -6.1857 *    -2.0619 *   -7.20300    1.00000
   146  Ba    c      6.1857 *    -6.1857 *     2.0619 *   -7.20300    1.00000
   147  Ba    c     -2.0619 *     6.1857 *    -2.0619 *   -7.20300    1.00000
   148  Ba    c     -2.0619 *     6.1857 *     2.0619 *   -7.20300    1.00000
   149  Ba    c     -2.0619 *    -6.1857 *    -2.0619 *   -7.20300    1.00000
   150  Ba    c     -2.0619 *    -6.1857 *     2.0619 *   -7.20300    1.00000
   151  O     c     -0.0000 *     4.1238 *     6.1857 *    0.38900    1.00000
   152  O     c     -0.0000 *     4.1238 *    -6.1857 *    0.38900    1.00000
   153  O     c     -0.0000 *     6.1857 *     4.1238 *    0.38900    1.00000
   154  O     c     -0.0000 *     6.1857 *    -4.1238 *    0.38900    1.00000
   155  O     c     -4.1238 *    -2.0619 *     4.1238 *    0.38900    1.00000
   156  O     c     -4.1238 *    -2.0619 *    -4.1238 *    0.38900    1.00000
   157  O     c     -4.1238 *     2.0619 *     4.1238 *    0.38900    1.00000
   158  O     c     -4.1238 *     2.0619 *    -4.1238 *    0.38900    1.00000
   159  O     c     -4.1238 *    -4.1238 *    -2.0619 *    0.38900    1.00000
   160  O     c     -4.1238 *    -4.1238 *     2.0619 *    0.38900    1.00000
   161  O     c     -4.1238 *     4.1238 *    -2.0619 *    0.38900    1.00000
   162  O     c     -4.1238 *     4.1238 *     2.0619 *    0.38900    1.00000
   163  O     c      2.0619 *     0.0000 *     8.2475 *    0.38900    1.00000
   164  O     c      2.0619 *     0.0000 *    -8.2475 *    0.38900    1.00000
   165  O     c      2.0619 *     8.2475 *     0.0000 *    0.38900    1.00000
   166  O     c      2.0619 *    -8.2475 *     0.0000 *    0.38900    1.00000
   167  O     c     10.3094 *     0.0000 *     0.0000 *    0.38900    1.00000
   168  O     c     -6.1857 *     0.0000 *     0.0000 *    0.38900    1.00000
   169  Sn    c      4.1238 *     0.0000 *     8.2475 *    2.42000    1.00000
   170  Sn    c      4.1238 *     0.0000 *    -8.2475 *    2.42000    1.00000
   171  Sn    c      4.1238 *     8.2475 *     0.0000 *    2.42000    1.00000
   172  Sn    c      4.1238 *    -8.2475 *     0.0000 *    2.42000    1.00000
   173  Sn    c      8.2475 *     4.1238 *     4.1238 *    2.42000    1.00000
   174  Sn    c      8.2475 *     4.1238 *    -4.1238 *    2.42000    1.00000
   175  Sn    c      8.2475 *    -4.1238 *     4.1238 *    2.42000    1.00000
   176  Sn    c      8.2475 *    -4.1238 *    -4.1238 *    2.42000    1.00000
   177  Sn    c     -0.0000 *     0.0000 *     8.2475 *    2.42000    1.00000
   178  Sn    c     -0.0000 *     0.0000 *    -8.2475 *    2.42000    1.00000
   179  Sn    c     -0.0000 *     8.2475 *     0.0000 *    2.42000    1.00000
   180  Sn    c     -0.0000 *    -8.2475 *     0.0000 *    2.42000    1.00000
   181  Sn    c     -4.1238 *     4.1238 *     4.1238 *    2.42000    1.00000
   182  Sn    c     -4.1238 *     4.1238 *    -4.1238 *    2.42000    1.00000
   183  Sn    c     -4.1238 *    -4.1238 *     4.1238 *    2.42000    1.00000
   184  Sn    c     -4.1238 *    -4.1238 *    -4.1238 *    2.42000    1.00000
   185  O     c      8.2475 *    -6.1857 *     0.0000 *    0.38900    1.00000
   186  O     c      8.2475 *     0.0000 *     6.1857 *    0.38900    1.00000
   187  O     c      8.2475 *     0.0000 *    -6.1857 *    0.38900    1.00000
   188  Ba    c      2.0619 *     6.1857 *     6.1857 *   -7.20300    1.00000
   189  Ba    c      2.0619 *     6.1857 *    -6.1857 *   -7.20300    1.00000
   190  Ba    c      2.0619 *    -6.1857 *     6.1857 *   -7.20300    1.00000
   191  Ba    c      2.0619 *    -6.1857 *    -6.1857 *   -7.20300    1.00000
   192  O     c      4.1238 *    -2.0619 *     8.2475 *    0.38900    1.00000
   193  O     c      4.1238 *    -2.0619 *    -8.2475 *    0.38900    1.00000
   194  O     c      4.1238 *     2.0619 *     8.2475 *    0.38900    1.00000
   195  O     c      4.1238 *     2.0619 *    -8.2475 *    0.38900    1.00000
   196  O     c      8.2475 *     6.1857 *     0.0000 *    0.38900    1.00000
   197  O     c      4.1238 *     8.2475 *    -2.0619 *    0.38900    1.00000
   198  O     c      4.1238 *     8.2475 *     2.0619 *    0.38900    1.00000
   199  O     c      4.1238 *    -8.2475 *    -2.0619 *    0.38900    1.00000
   200  O     c      4.1238 *    -8.2475 *     2.0619 *    0.38900    1.00000
   201  O     c     -0.0000 *    -2.0619 *     8.2475 *    0.38900    1.00000
   202  O     c     -0.0000 *    -2.0619 *    -8.2475 *    0.38900    1.00000
   203  O     c     -0.0000 *     2.0619 *     8.2475 *    0.38900    1.00000
   204  O     c     -0.0000 *     2.0619 *    -8.2475 *    0.38900    1.00000
   205  O     c     -4.1238 *    -6.1857 *     0.0000 *    0.38900    1.00000
   206  O     c     -0.0000 *     8.2475 *    -2.0619 *    0.38900    1.00000
   207  O     c     -0.0000 *     8.2475 *     2.0619 *    0.38900    1.00000
   208  O     c     -0.0000 *    -8.2475 *    -2.0619 *    0.38900    1.00000
   209  O     c     -0.0000 *    -8.2475 *     2.0619 *    0.38900    1.00000
   210  Ba    c     10.3094 *    -2.0619 *    -2.0619 *   -7.20300    1.00000
   211  Ba    c     10.3094 *    -2.0619 *     2.0619 *   -7.20300    1.00000
   212  Ba    c     10.3094 *     2.0619 *    -2.0619 *   -7.20300    1.00000
   213  Ba    c     10.3094 *     2.0619 *     2.0619 *   -7.20300    1.00000
   214  Ba    c     -6.1857 *    -2.0619 *    -2.0619 *   -7.20300    1.00000
   215  Ba    c     -6.1857 *    -2.0619 *     2.0619 *   -7.20300    1.00000
   216  Ba    c     -6.1857 *     2.0619 *    -2.0619 *   -7.20300    1.00000
   217  Ba    c     -6.1857 *     2.0619 *     2.0619 *   -7.20300    1.00000
   218  O     c     -4.1238 *     0.0000 *     6.1857 *    0.38900    1.00000
   219  O     c     -4.1238 *     0.0000 *    -6.1857 *    0.38900    1.00000
   220  O     c     -4.1238 *     6.1857 *     0.0000 *    0.38900    1.00000
   221  O     c      2.0619 *     8.2475 *     4.1238 *    0.38900    1.00000
   222  O     c      2.0619 *     8.2475 *    -4.1238 *    0.38900    1.00000
   223  O     c      2.0619 *    -4.1238 *     8.2475 *    0.38900    1.00000
   224  O     c      2.0619 *    -4.1238 *    -8.2475 *    0.38900    1.00000
   225  O     c      2.0619 *    -8.2475 *     4.1238 *    0.38900    1.00000
   226  O     c      2.0619 *    -8.2475 *    -4.1238 *    0.38900    1.00000
   227  O     c      6.1857 *     0.0000 *     8.2475 *    0.38900    1.00000
   228  O     c      6.1857 *     0.0000 *    -8.2475 *    0.38900    1.00000
   229  O     c      6.1857 *     8.2475 *     0.0000 *    0.38900    1.00000
   230  O     c      6.1857 *    -8.2475 *     0.0000 *    0.38900    1.00000
   231  O     c     10.3094 *     0.0000 *     4.1238 *    0.38900    1.00000
   232  O     c     10.3094 *     0.0000 *    -4.1238 *    0.38900    1.00000
   233  O     c     10.3094 *    -4.1238 *     0.0000 *    0.38900    1.00000
   234  O     c      2.0619 *     4.1238 *     8.2475 *    0.38900    1.00000
   235  O     c      2.0619 *     4.1238 *    -8.2475 *    0.38900    1.00000
   236  O     c     10.3094 *     4.1238 *     0.0000 *    0.38900    1.00000
   237  O     c     -2.0619 *     0.0000 *     8.2475 *    0.38900    1.00000
   238  O     c     -2.0619 *     0.0000 *    -8.2475 *    0.38900    1.00000
   239  O     c     -2.0619 *     8.2475 *     0.0000 *    0.38900    1.00000
   240  O     c     -2.0619 *    -8.2475 *     0.0000 *    0.38900    1.00000
   241  O     c     -6.1857 *     0.0000 *     4.1238 *    0.38900    1.00000
   242  O     c     -6.1857 *     0.0000 *    -4.1238 *    0.38900    1.00000
   243  O     c     -6.1857 *    -4.1238 *     0.0000 *    0.38900    1.00000
   244  O     c     -6.1857 *     4.1238 *     0.0000 *    0.38900    1.00000
   245  Sn    c      4.1238 *     8.2475 *     4.1238 *    2.42000    1.00000
   246  Sn    c      4.1238 *     8.2475 *    -4.1238 *    2.42000    1.00000
   247  Sn    c      4.1238 *    -8.2475 *     4.1238 *    2.42000    1.00000
   248  Sn    c      4.1238 *    -8.2475 *    -4.1238 *    2.42000    1.00000
   249  Sn    c     -0.0000 *     8.2475 *     4.1238 *    2.42000    1.00000
   250  Sn    c     -0.0000 *     8.2475 *    -4.1238 *    2.42000    1.00000
   251  Sn    c     -0.0000 *    -8.2475 *     4.1238 *    2.42000    1.00000
   252  Sn    c     -0.0000 *    -8.2475 *    -4.1238 *    2.42000    1.00000
   253  Sn    c      4.1238 *     4.1238 *     8.2475 *    2.42000    1.00000
   254  Sn    c      4.1238 *     4.1238 *    -8.2475 *    2.42000    1.00000
   255  Sn    c      4.1238 *    -4.1238 *     8.2475 *    2.42000    1.00000
   256  Sn    c      4.1238 *    -4.1238 *    -8.2475 *    2.42000    1.00000
   257  Sn    c     -0.0000 *     4.1238 *     8.2475 *    2.42000    1.00000
   258  Sn    c     -0.0000 *     4.1238 *    -8.2475 *    2.42000    1.00000
   259  Sn    c     -0.0000 *    -4.1238 *     8.2475 *    2.42000    1.00000
   260  Sn    c     -0.0000 *    -4.1238 *    -8.2475 *    2.42000    1.00000
   261  O     c      8.2475 *    -6.1857 *     4.1238 *    0.38900    1.00000
   262  O     c      8.2475 *    -6.1857 *    -4.1238 *    0.38900    1.00000
   263  O     c      8.2475 *    -4.1238 *     6.1857 *    0.38900    1.00000
   264  O     c      8.2475 *    -4.1238 *    -6.1857 *    0.38900    1.00000
   265  O     c      8.2475 *     4.1238 *     6.1857 *    0.38900    1.00000
   266  O     c      8.2475 *     4.1238 *    -6.1857 *    0.38900    1.00000
   267  O     c      8.2475 *     6.1857 *     4.1238 *    0.38900    1.00000
   268  O     c      8.2475 *     6.1857 *    -4.1238 *    0.38900    1.00000
   269  Ba    c      6.1857 *     6.1857 *     6.1857 *   -7.20300    1.00000
   270  Ba    c      6.1857 *     6.1857 *    -6.1857 *   -7.20300    1.00000
   271  Ba    c      6.1857 *    -6.1857 *     6.1857 *   -7.20300    1.00000
   272  Ba    c      6.1857 *    -6.1857 *    -6.1857 *   -7.20300    1.00000
   273  Ba    c     -2.0619 *     6.1857 *     6.1857 *   -7.20300    1.00000
   274  Ba    c     -2.0619 *     6.1857 *    -6.1857 *   -7.20300    1.00000
   275  Ba    c     -2.0619 *    -6.1857 *     6.1857 *   -7.20300    1.00000
   276  Ba    c     -2.0619 *    -6.1857 *    -6.1857 *   -7.20300    1.00000
   277  O     c     -4.1238 *    -6.1857 *     4.1238 *    0.38900    1.00000
   278  O     c     -4.1238 *    -6.1857 *    -4.1238 *    0.38900    1.00000
   279  O     c     -4.1238 *    -4.1238 *     6.1857 *    0.38900    1.00000
   280  O     c     -4.1238 *    -4.1238 *    -6.1857 *    0.38900    1.00000
   281  O     c     -4.1238 *     6.1857 *     4.1238 *    0.38900    1.00000
   282  O     c     -4.1238 *     6.1857 *    -4.1238 *    0.38900    1.00000
   283  O     c     -4.1238 *     4.1238 *     6.1857 *    0.38900    1.00000
   284  O     c     -4.1238 *     4.1238 *    -6.1857 *    0.38900    1.00000
   285  Sn    s      4.1238 *     0.0000 *     0.0000 *    1.58000    1.00000
   286  Sn    s     -0.0000 *     0.0000 *     0.0000 *    1.58000    1.00000
   287  O     s      4.1238 *    -2.0619 *     0.0000 *   -2.38900    1.00000
   288  O     s      4.1238 *     0.0000 *    -2.0619 *   -2.38900    1.00000
   289  O     s      4.1238 *     0.0000 *     2.0619 *   -2.38900    1.00000
   290  O     s      4.1238 *     2.0619 *     0.0000 *   -2.38900    1.00000
   291  Ba    s      2.0619 *    -2.0619 *    -2.0619 *    9.20300    1.00000
   292  Ba    s      2.0619 *    -2.0619 *     2.0619 *    9.20300    1.00000
   293  Ba    s      2.0619 *     2.0619 *    -2.0619 *    9.20300    1.00000
   294  Ba    s      2.0619 *     2.0619 *     2.0619 *    9.20300    1.00000
   295  O     s     -0.0000 *    -2.0619 *     0.0000 *   -2.38900    1.00000
   296  O     s     -0.0000 *     0.0000 *    -2.0619 *   -2.38900    1.00000
   297  O     s     -0.0000 *     0.0000 *     2.0619 *   -2.38900    1.00000
   298  O     s     -0.0000 *     2.0619 *     0.0000 *   -2.38900    1.00000
   299  O     s      2.0619 *    -4.1238 *     0.0000 *   -2.38900    1.00000
   300  O     s      2.0619 *     0.0000 *     4.1238 *   -2.38900    1.00000
   301  O     s      2.0619 *     0.0000 *    -4.1238 *   -2.38900    1.00000
   302  O     s      6.1857 *     0.0000 *     0.0000 *   -2.38900    1.00000
   303  O     s      2.0619 *     4.1238 *     0.0000 *   -2.38900    1.00000
   304  O     s     -2.0619 *     0.0000 *     0.0000 *   -2.38900    1.00000
   305  Sn    s      4.1238 *     0.0000 *     4.1238 *    1.58000    1.00000
   306  Sn    s      4.1238 *     0.0000 *    -4.1238 *    1.58000    1.00000
   307  Sn    s      4.1238 *     4.1238 *     0.0000 *    1.58000    1.00000
   308  Sn    s      4.1238 *    -4.1238 *     0.0000 *    1.58000    1.00000
   309  Sn    s     -0.0000 *     0.0000 *     4.1238 *    1.58000    1.00000
   310  Sn    s     -0.0000 *     0.0000 *    -4.1238 *    1.58000    1.00000
   311  Sn    s     -0.0000 *     4.1238 *     0.0000 *    1.58000    1.00000
   312  Sn    s     -0.0000 *    -4.1238 *     0.0000 *    1.58000    1.00000
   313  O     s      4.1238 *    -4.1238 *    -2.0619 *   -2.38900    1.00000
   314  O     s      4.1238 *    -4.1238 *     2.0619 *   -2.38900    1.00000
   315  O     s      4.1238 *    -2.0619 *     4.1238 *   -2.38900    1.00000
   316  O     s      4.1238 *    -2.0619 *    -4.1238 *   -2.38900    1.00000
   317  O     s      4.1238 *     2.0619 *     4.1238 *   -2.38900    1.00000
   318  O     s      4.1238 *     2.0619 *    -4.1238 *   -2.38900    1.00000
   319  O     s      4.1238 *     4.1238 *    -2.0619 *   -2.38900    1.00000
   320  O     s      4.1238 *     4.1238 *     2.0619 *   -2.38900    1.00000
   321  Ba    s     -2.0619 *    -2.0619 *    -2.0619 *    9.20300    1.00000
   322  Ba    s     -2.0619 *    -2.0619 *     2.0619 *    9.20300    1.00000
   323  Ba    s     -2.0619 *     2.0619 *    -2.0619 *    9.20300    1.00000
   324  Ba    s     -2.0619 *     2.0619 *     2.0619 *    9.20300    1.00000
   325  O     s     -0.0000 *    -4.1238 *    -2.0619 *   -2.38900    1.00000
   326  O     s     -0.0000 *    -4.1238 *     2.0619 *   -2.38900    1.00000
   327  O     s     -0.0000 *    -2.0619 *     4.1238 *   -2.38900    1.00000
   328  O     s     -0.0000 *    -2.0619 *    -4.1238 *   -2.38900    1.00000
   329  Ba    s      6.1857 *    -2.0619 *    -2.0619 *    9.20300    1.00000
   330  Ba    s      6.1857 *    -2.0619 *     2.0619 *    9.20300    1.00000
   331  Ba    s      6.1857 *     2.0619 *    -2.0619 *    9.20300    1.00000
   332  Ba    s      6.1857 *     2.0619 *     2.0619 *    9.20300    1.00000
   333  O     s     -0.0000 *     2.0619 *     4.1238 *   -2.38900    1.00000
   334  O     s     -0.0000 *     2.0619 *    -4.1238 *   -2.38900    1.00000
   335  O     s     -0.0000 *     4.1238 *    -2.0619 *   -2.38900    1.00000
   336  O     s     -0.0000 *     4.1238 *     2.0619 *   -2.38900    1.00000
   337  O     s      2.0619 *    -4.1238 *     4.1238 *   -2.38900    1.00000
   338  O     s      2.0619 *    -4.1238 *    -4.1238 *   -2.38900    1.00000
   339  O     s      6.1857 *    -4.1238 *     0.0000 *   -2.38900    1.00000
   340  O     s      6.1857 *     0.0000 *     4.1238 *   -2.38900    1.00000
   341  O     s      6.1857 *     0.0000 *    -4.1238 *   -2.38900    1.00000
   342  O     s      2.0619 *     4.1238 *     4.1238 *   -2.38900    1.00000
   343  O     s      2.0619 *     4.1238 *    -4.1238 *   -2.38900    1.00000
   344  O     s      6.1857 *     4.1238 *     0.0000 *   -2.38900    1.00000
   345  O     s     -2.0619 *    -4.1238 *     0.0000 *   -2.38900    1.00000
   346  O     s     -2.0619 *     0.0000 *     4.1238 *   -2.38900    1.00000
   347  O     s     -2.0619 *     0.0000 *    -4.1238 *   -2.38900    1.00000
   348  O     s     -2.0619 *     4.1238 *     0.0000 *   -2.38900    1.00000
   349  Sn    s      4.1238 *     4.1238 *     4.1238 *    1.58000    1.00000
   350  Sn    s      4.1238 *     4.1238 *    -4.1238 *    1.58000    1.00000
   351  Sn    s      4.1238 *    -4.1238 *     4.1238 *    1.58000    1.00000
   352  Sn    s      4.1238 *    -4.1238 *    -4.1238 *    1.58000    1.00000
   353  Sn    s      8.2475 *     0.0000 *     0.0000 *    1.58000    1.00000
   354  Sn    s     -0.0000 *     4.1238 *     4.1238 *    1.58000    1.00000
   355  Sn    s     -0.0000 *     4.1238 *    -4.1238 *    1.58000    1.00000
   356  Sn    s     -0.0000 *    -4.1238 *     4.1238 *    1.58000    1.00000
   357  Sn    s     -0.0000 *    -4.1238 *    -4.1238 *    1.58000    1.00000
   358  Sn    s     -4.1238 *     0.0000 *     0.0000 *    1.58000    1.00000
   359  O     s      8.2475 *    -2.0619 *     0.0000 *   -2.38900    1.00000
   360  O     s      4.1238 *    -6.1857 *     0.0000 *   -2.38900    1.00000
   361  O     s      8.2475 *     2.0619 *     0.0000 *   -2.38900    1.00000
   362  O     s      8.2475 *     0.0000 *    -2.0619 *   -2.38900    1.00000
   363  O     s      8.2475 *     0.0000 *     2.0619 *   -2.38900    1.00000
   364  O     s      4.1238 *     0.0000 *     6.1857 *   -2.38900    1.00000
   365  O     s      4.1238 *     0.0000 *    -6.1857 *   -2.38900    1.00000
   366  Ba    s      2.0619 *    -2.0619 *     6.1857 *    9.20300    1.00000
   367  Ba    s      2.0619 *    -2.0619 *    -6.1857 *    9.20300    1.00000
   368  Ba    s      2.0619 *     2.0619 *     6.1857 *    9.20300    1.00000
   369  Ba    s      2.0619 *     2.0619 *    -6.1857 *    9.20300    1.00000
   370  Ba    s      2.0619 *     6.1857 *    -2.0619 *    9.20300    1.00000
   371  Ba    s      2.0619 *     6.1857 *     2.0619 *    9.20300    1.00000
   372  Ba    s      2.0619 *    -6.1857 *    -2.0619 *    9.20300    1.00000
   373  Ba    s      2.0619 *    -6.1857 *     2.0619 *    9.20300    1.00000
   374  O     s     -0.0000 *    -6.1857 *     0.0000 *   -2.38900    1.00000
   375  O     s      4.1238 *     6.1857 *     0.0000 *   -2.38900    1.00000
   376  O     s     -0.0000 *     0.0000 *     6.1857 *   -2.38900    1.00000
   377  O     s     -0.0000 *     0.0000 *    -6.1857 *   -2.38900    1.00000
   378  O     s     -0.0000 *     6.1857 *     0.0000 *   -2.38900    1.00000
   379  O     s     -4.1238 *    -2.0619 *     0.0000 *   -2.38900    1.00000
   380  O     s     -4.1238 *     2.0619 *     0.0000 *   -2.38900    1.00000
   381  O     s     -4.1238 *     0.0000 *    -2.0619 *   -2.38900    1.00000
   382  O     s     -4.1238 *     0.0000 *     2.0619 *   -2.38900    1.00000
   383  O     s      6.1857 *    -4.1238 *     4.1238 *   -2.38900    1.00000
   384  O     s      6.1857 *    -4.1238 *    -4.1238 *   -2.38900    1.00000
   385  O     s      6.1857 *     4.1238 *     4.1238 *   -2.38900    1.00000
   386  O     s      6.1857 *     4.1238 *    -4.1238 *   -2.38900    1.00000
   387  O     s     -2.0619 *    -4.1238 *     4.1238 *   -2.38900    1.00000
   388  O     s     -2.0619 *    -4.1238 *    -4.1238 *   -2.38900    1.00000
   389  O     s     -2.0619 *     4.1238 *     4.1238 *   -2.38900    1.00000
   390  O     s     -2.0619 *     4.1238 *    -4.1238 *   -2.38900    1.00000
   391  Sn    s      8.2475 *     0.0000 *     4.1238 *    1.58000    1.00000
   392  Sn    s      8.2475 *     0.0000 *    -4.1238 *    1.58000    1.00000
   393  Sn    s      8.2475 *     4.1238 *     0.0000 *    1.58000    1.00000
   394  Sn    s      8.2475 *    -4.1238 *     0.0000 *    1.58000    1.00000
   395  Sn    s     -4.1238 *     0.0000 *     4.1238 *    1.58000    1.00000
   396  Sn    s     -4.1238 *     0.0000 *    -4.1238 *    1.58000    1.00000
   397  Sn    s     -4.1238 *     4.1238 *     0.0000 *    1.58000    1.00000
   398  Sn    s     -4.1238 *    -4.1238 *     0.0000 *    1.58000    1.00000
   399  O     s      8.2475 *    -2.0619 *     4.1238 *   -2.38900    1.00000
   400  O     s      8.2475 *    -2.0619 *    -4.1238 *   -2.38900    1.00000
   401  O     s      8.2475 *    -4.1238 *    -2.0619 *   -2.38900    1.00000
   402  O     s      8.2475 *    -4.1238 *     2.0619 *   -2.38900    1.00000
   403  O     s      4.1238 *    -6.1857 *     4.1238 *   -2.38900    1.00000
   404  O     s      4.1238 *    -6.1857 *    -4.1238 *   -2.38900    1.00000
   405  O     s      8.2475 *     2.0619 *     4.1238 *   -2.38900    1.00000
   406  O     s      8.2475 *     2.0619 *    -4.1238 *   -2.38900    1.00000
   407  O     s      4.1238 *    -4.1238 *     6.1857 *   -2.38900    1.00000
   408  O     s      4.1238 *    -4.1238 *    -6.1857 *   -2.38900    1.00000
   409  O     s      8.2475 *     4.1238 *    -2.0619 *   -2.38900    1.00000
   410  O     s      8.2475 *     4.1238 *     2.0619 *   -2.38900    1.00000
   411  O     s     -0.0000 *    -6.1857 *     4.1238 *   -2.38900    1.00000
   412  O     s     -0.0000 *    -6.1857 *    -4.1238 *   -2.38900    1.00000
   413  O     s      4.1238 *     6.1857 *     4.1238 *   -2.38900    1.00000
   414  O     s      4.1238 *     6.1857 *    -4.1238 *   -2.38900    1.00000
   415  O     s      4.1238 *     4.1238 *     6.1857 *   -2.38900    1.00000
   416  O     s      4.1238 *     4.1238 *    -6.1857 *   -2.38900    1.00000
   417  Ba    s     -2.0619 *    -2.0619 *     6.1857 *    9.20300    1.00000
   418  Ba    s     -2.0619 *    -2.0619 *    -6.1857 *    9.20300    1.00000
   419  Ba    s     -2.0619 *     2.0619 *     6.1857 *    9.20300    1.00000
   420  Ba    s     -2.0619 *     2.0619 *    -6.1857 *    9.20300    1.00000
   421  O     s     -0.0000 *    -4.1238 *     6.1857 *   -2.38900    1.00000
   422  O     s     -0.0000 *    -4.1238 *    -6.1857 *   -2.38900    1.00000
   423  Ba    s      6.1857 *    -2.0619 *     6.1857 *    9.20300    1.00000
   424  Ba    s      6.1857 *    -2.0619 *    -6.1857 *    9.20300    1.00000
   425  Ba    s      6.1857 *     2.0619 *     6.1857 *    9.20300    1.00000
   426  Ba    s      6.1857 *     2.0619 *    -6.1857 *    9.20300    1.00000
   427  Ba    s      6.1857 *     6.1857 *    -2.0619 *    9.20300    1.00000
   428  Ba    s      6.1857 *     6.1857 *     2.0619 *    9.20300    1.00000
   429  Ba    s      6.1857 *    -6.1857 *    -2.0619 *    9.20300    1.00000
   430  Ba    s      6.1857 *    -6.1857 *     2.0619 *    9.20300    1.00000
   431  Ba    s     -2.0619 *     6.1857 *    -2.0619 *    9.20300    1.00000
   432  Ba    s     -2.0619 *     6.1857 *     2.0619 *    9.20300    1.00000
   433  Ba    s     -2.0619 *    -6.1857 *    -2.0619 *    9.20300    1.00000
   434  Ba    s     -2.0619 *    -6.1857 *     2.0619 *    9.20300    1.00000
   435  O     s     -0.0000 *     4.1238 *     6.1857 *   -2.38900    1.00000
   436  O     s     -0.0000 *     4.1238 *    -6.1857 *   -2.38900    1.00000
   437  O     s     -0.0000 *     6.1857 *     4.1238 *   -2.38900    1.00000
   438  O     s     -0.0000 *     6.1857 *    -4.1238 *   -2.38900    1.00000
   439  O     s     -4.1238 *    -2.0619 *     4.1238 *   -2.38900    1.00000
   440  O     s     -4.1238 *    -2.0619 *    -4.1238 *   -2.38900    1.00000
   441  O     s     -4.1238 *     2.0619 *     4.1238 *   -2.38900    1.00000
   442  O     s     -4.1238 *     2.0619 *    -4.1238 *   -2.38900    1.00000
   443  O     s     -4.1238 *    -4.1238 *    -2.0619 *   -2.38900    1.00000
   444  O     s     -4.1238 *    -4.1238 *     2.0619 *   -2.38900    1.00000
   445  O     s     -4.1238 *     4.1238 *    -2.0619 *   -2.38900    1.00000
   446  O     s     -4.1238 *     4.1238 *     2.0619 *   -2.38900    1.00000
   447  O     s      2.0619 *     0.0000 *     8.2475 *   -2.38900    1.00000
   448  O     s      2.0619 *     0.0000 *    -8.2475 *   -2.38900    1.00000
   449  O     s      2.0619 *     8.2475 *     0.0000 *   -2.38900    1.00000
   450  O     s      2.0619 *    -8.2475 *     0.0000 *   -2.38900    1.00000
   451  O     s     10.3094 *     0.0000 *     0.0000 *   -2.38900    1.00000
   452  O     s     -6.1857 *     0.0000 *     0.0000 *   -2.38900    1.00000
   453  Sn    s      4.1238 *     0.0000 *     8.2475 *    1.58000    1.00000
   454  Sn    s      4.1238 *     0.0000 *    -8.2475 *    1.58000    1.00000
   455  Sn    s      4.1238 *     8.2475 *     0.0000 *    1.58000    1.00000
   456  Sn    s      4.1238 *    -8.2475 *     0.0000 *    1.58000    1.00000
   457  Sn    s      8.2475 *     4.1238 *     4.1238 *    1.58000    1.00000
   458  Sn    s      8.2475 *     4.1238 *    -4.1238 *    1.58000    1.00000
   459  Sn    s      8.2475 *    -4.1238 *     4.1238 *    1.58000    1.00000
   460  Sn    s      8.2475 *    -4.1238 *    -4.1238 *    1.58000    1.00000
   461  Sn    s     -0.0000 *     0.0000 *     8.2475 *    1.58000    1.00000
   462  Sn    s     -0.0000 *     0.0000 *    -8.2475 *    1.58000    1.00000
   463  Sn    s     -0.0000 *     8.2475 *     0.0000 *    1.58000    1.00000
   464  Sn    s     -0.0000 *    -8.2475 *     0.0000 *    1.58000    1.00000
   465  Sn    s     -4.1238 *     4.1238 *     4.1238 *    1.58000    1.00000
   466  Sn    s     -4.1238 *     4.1238 *    -4.1238 *    1.58000    1.00000
   467  Sn    s     -4.1238 *    -4.1238 *     4.1238 *    1.58000    1.00000
   468  Sn    s     -4.1238 *    -4.1238 *    -4.1238 *    1.58000    1.00000
   469  O     s      8.2475 *    -6.1857 *     0.0000 *   -2.38900    1.00000
   470  O     s      8.2475 *     0.0000 *     6.1857 *   -2.38900    1.00000
   471  O     s      8.2475 *     0.0000 *    -6.1857 *   -2.38900    1.00000
   472  Ba    s      2.0619 *     6.1857 *     6.1857 *    9.20300    1.00000
   473  Ba    s      2.0619 *     6.1857 *    -6.1857 *    9.20300    1.00000
   474  Ba    s      2.0619 *    -6.1857 *     6.1857 *    9.20300    1.00000
   475  Ba    s      2.0619 *    -6.1857 *    -6.1857 *    9.20300    1.00000
   476  O     s      4.1238 *    -2.0619 *     8.2475 *   -2.38900    1.00000
   477  O     s      4.1238 *    -2.0619 *    -8.2475 *   -2.38900    1.00000
   478  O     s      4.1238 *     2.0619 *     8.2475 *   -2.38900    1.00000
   479  O     s      4.1238 *     2.0619 *    -8.2475 *   -2.38900    1.00000
   480  O     s      8.2475 *     6.1857 *     0.0000 *   -2.38900    1.00000
   481  O     s      4.1238 *     8.2475 *    -2.0619 *   -2.38900    1.00000
   482  O     s      4.1238 *     8.2475 *     2.0619 *   -2.38900    1.00000
   483  O     s      4.1238 *    -8.2475 *    -2.0619 *   -2.38900    1.00000
   484  O     s      4.1238 *    -8.2475 *     2.0619 *   -2.38900    1.00000
   485  O     s     -0.0000 *    -2.0619 *     8.2475 *   -2.38900    1.00000
   486  O     s     -0.0000 *    -2.0619 *    -8.2475 *   -2.38900    1.00000
   487  O     s     -0.0000 *     2.0619 *     8.2475 *   -2.38900    1.00000
   488  O     s     -0.0000 *     2.0619 *    -8.2475 *   -2.38900    1.00000
   489  O     s     -4.1238 *    -6.1857 *     0.0000 *   -2.38900    1.00000
   490  O     s     -0.0000 *     8.2475 *    -2.0619 *   -2.38900    1.00000
   491  O     s     -0.0000 *     8.2475 *     2.0619 *   -2.38900    1.00000
   492  O     s     -0.0000 *    -8.2475 *    -2.0619 *   -2.38900    1.00000
   493  O     s     -0.0000 *    -8.2475 *     2.0619 *   -2.38900    1.00000
   494  Ba    s     10.3094 *    -2.0619 *    -2.0619 *    9.20300    1.00000
   495  Ba    s     10.3094 *    -2.0619 *     2.0619 *    9.20300    1.00000
   496  Ba    s     10.3094 *     2.0619 *    -2.0619 *    9.20300    1.00000
   497  Ba    s     10.3094 *     2.0619 *     2.0619 *    9.20300    1.00000
   498  Ba    s     -6.1857 *    -2.0619 *    -2.0619 *    9.20300    1.00000
   499  Ba    s     -6.1857 *    -2.0619 *     2.0619 *    9.20300    1.00000
   500  Ba    s     -6.1857 *     2.0619 *    -2.0619 *    9.20300    1.00000
   501  Ba    s     -6.1857 *     2.0619 *     2.0619 *    9.20300    1.00000
   502  O     s     -4.1238 *     0.0000 *     6.1857 *   -2.38900    1.00000
   503  O     s     -4.1238 *     0.0000 *    -6.1857 *   -2.38900    1.00000
   504  O     s     -4.1238 *     6.1857 *     0.0000 *   -2.38900    1.00000
   505  O     s      2.0619 *     8.2475 *     4.1238 *   -2.38900    1.00000
   506  O     s      2.0619 *     8.2475 *    -4.1238 *   -2.38900    1.00000
   507  O     s      2.0619 *    -4.1238 *     8.2475 *   -2.38900    1.00000
   508  O     s      2.0619 *    -4.1238 *    -8.2475 *   -2.38900    1.00000
   509  O     s      2.0619 *    -8.2475 *     4.1238 *   -2.38900    1.00000
   510  O     s      2.0619 *    -8.2475 *    -4.1238 *   -2.38900    1.00000
   511  O     s      6.1857 *     0.0000 *     8.2475 *   -2.38900    1.00000
   512  O     s      6.1857 *     0.0000 *    -8.2475 *   -2.38900    1.00000
   513  O     s      6.1857 *     8.2475 *     0.0000 *   -2.38900    1.00000
   514  O     s      6.1857 *    -8.2475 *     0.0000 *   -2.38900    1.00000
   515  O     s     10.3094 *     0.0000 *     4.1238 *   -2.38900    1.00000
   516  O     s     10.3094 *     0.0000 *    -4.1238 *   -2.38900    1.00000
   517  O     s     10.3094 *    -4.1238 *     0.0000 *   -2.38900    1.00000
   518  O     s      2.0619 *     4.1238 *     8.2475 *   -2.38900    1.00000
   519  O     s      2.0619 *     4.1238 *    -8.2475 *   -2.38900    1.00000
   520  O     s     10.3094 *     4.1238 *     0.0000 *   -2.38900    1.00000
   521  O     s     -2.0619 *     0.0000 *     8.2475 *   -2.38900    1.00000
   522  O     s     -2.0619 *     0.0000 *    -8.2475 *   -2.38900    1.00000
   523  O     s     -2.0619 *     8.2475 *     0.0000 *   -2.38900    1.00000
   524  O     s     -2.0619 *    -8.2475 *     0.0000 *   -2.38900    1.00000
   525  O     s     -6.1857 *     0.0000 *     4.1238 *   -2.38900    1.00000
   526  O     s     -6.1857 *     0.0000 *    -4.1238 *   -2.38900    1.00000
   527  O     s     -6.1857 *    -4.1238 *     0.0000 *   -2.38900    1.00000
   528  O     s     -6.1857 *     4.1238 *     0.0000 *   -2.38900    1.00000
   529  Sn    s      4.1238 *     8.2475 *     4.1238 *    1.58000    1.00000
   530  Sn    s      4.1238 *     8.2475 *    -4.1238 *    1.58000    1.00000
   531  Sn    s      4.1238 *    -8.2475 *     4.1238 *    1.58000    1.00000
   532  Sn    s      4.1238 *    -8.2475 *    -4.1238 *    1.58000    1.00000
   533  Sn    s     -0.0000 *     8.2475 *     4.1238 *    1.58000    1.00000
   534  Sn    s     -0.0000 *     8.2475 *    -4.1238 *    1.58000    1.00000
   535  Sn    s     -0.0000 *    -8.2475 *     4.1238 *    1.58000    1.00000
   536  Sn    s     -0.0000 *    -8.2475 *    -4.1238 *    1.58000    1.00000
   537  Sn    s      4.1238 *     4.1238 *     8.2475 *    1.58000    1.00000
   538  Sn    s      4.1238 *     4.1238 *    -8.2475 *    1.58000    1.00000
   539  Sn    s      4.1238 *    -4.1238 *     8.2475 *    1.58000    1.00000
   540  Sn    s      4.1238 *    -4.1238 *    -8.2475 *    1.58000    1.00000
   541  Sn    s     -0.0000 *     4.1238 *     8.2475 *    1.58000    1.00000
   542  Sn    s     -0.0000 *     4.1238 *    -8.2475 *    1.58000    1.00000
   543  Sn    s     -0.0000 *    -4.1238 *     8.2475 *    1.58000    1.00000
   544  Sn    s     -0.0000 *    -4.1238 *    -8.2475 *    1.58000    1.00000
   545  O     s      8.2475 *    -6.1857 *     4.1238 *   -2.38900    1.00000
   546  O     s      8.2475 *    -6.1857 *    -4.1238 *   -2.38900    1.00000
   547  O     s      8.2475 *    -4.1238 *     6.1857 *   -2.38900    1.00000
   548  O     s      8.2475 *    -4.1238 *    -6.1857 *   -2.38900    1.00000
   549  O     s      8.2475 *     4.1238 *     6.1857 *   -2.38900    1.00000
   550  O     s      8.2475 *     4.1238 *    -6.1857 *   -2.38900    1.00000
   551  O     s      8.2475 *     6.1857 *     4.1238 *   -2.38900    1.00000
   552  O     s      8.2475 *     6.1857 *    -4.1238 *   -2.38900    1.00000
   553  Ba    s      6.1857 *     6.1857 *     6.1857 *    9.20300    1.00000
   554  Ba    s      6.1857 *     6.1857 *    -6.1857 *    9.20300    1.00000
   555  Ba    s      6.1857 *    -6.1857 *     6.1857 *    9.20300    1.00000
   556  Ba    s      6.1857 *    -6.1857 *    -6.1857 *    9.20300    1.00000
   557  Ba    s     -2.0619 *     6.1857 *     6.1857 *    9.20300    1.00000
   558  Ba    s     -2.0619 *     6.1857 *    -6.1857 *    9.20300    1.00000
   559  Ba    s     -2.0619 *    -6.1857 *     6.1857 *    9.20300    1.00000
   560  Ba    s     -2.0619 *    -6.1857 *    -6.1857 *    9.20300    1.00000
   561  O     s     -4.1238 *    -6.1857 *     4.1238 *   -2.38900    1.00000
   562  O     s     -4.1238 *    -6.1857 *    -4.1238 *   -2.38900    1.00000
   563  O     s     -4.1238 *    -4.1238 *     6.1857 *   -2.38900    1.00000
   564  O     s     -4.1238 *    -4.1238 *    -6.1857 *   -2.38900    1.00000
   565  O     s     -4.1238 *     6.1857 *     4.1238 *   -2.38900    1.00000
   566  O     s     -4.1238 *     6.1857 *    -4.1238 *   -2.38900    1.00000
   567  O     s     -4.1238 *     4.1238 *     6.1857 *   -2.38900    1.00000
   568  O     s     -4.1238 *     4.1238 *    -6.1857 *   -2.38900    1.00000
--------------------------------------------------------------------------------



  Region 1 (Relative to defect centre) :

--------------------------------------------------------------------------------
   No.   Atomic       x            y             z         Charge   Occupancy
         Label      (Angs)       (Angs)        (Angs)        (e)    
--------------------------------------------------------------------------------
     1  Sn    c      2.0619 *     0.0000 *     0.0000 *    2.42000    1.00000
     2  Sn    c     -2.0619 *     0.0000 *     0.0000 *    2.42000    1.00000
     3  O     c      2.0619 *    -2.0619 *     0.0000 *    0.38900    1.00000
     4  O     c      2.0619 *     0.0000 *    -2.0619 *    0.38900    1.00000
     5  O     c      2.0619 *     0.0000 *     2.0619 *    0.38900    1.00000
     6  O     c      2.0619 *     2.0619 *     0.0000 *    0.38900    1.00000
     7  Ba    c      0.0000 *    -2.0619 *    -2.0619 *   -7.20300    1.00000
     8  Ba    c      0.0000 *    -2.0619 *     2.0619 *   -7.20300    1.00000
     9  Ba    c      0.0000 *     2.0619 *    -2.0619 *   -7.20300    1.00000
    10  Ba    c      0.0000 *     2.0619 *     2.0619 *   -7.20300    1.00000
    11  O     c     -2.0619 *    -2.0619 *     0.0000 *    0.38900    1.00000
    12  O     c     -2.0619 *     0.0000 *    -2.0619 *    0.38900    1.00000
    13  O     c     -2.0619 *     0.0000 *     2.0619 *    0.38900    1.00000
    14  O     c     -2.0619 *     2.0619 *     0.0000 *    0.38900    1.00000
    15  O     c     -0.0000 *    -4.1238 *     0.0000 *    0.38900    1.00000
    16  O     c     -0.0000 *     0.0000 *     4.1238 *    0.38900    1.00000
    17  O     c     -0.0000 *     0.0000 *    -4.1238 *    0.38900    1.00000
    18  O     c      4.1238 *     0.0000 *     0.0000 *    0.38900    1.00000
    19  O     c     -0.0000 *     4.1238 *     0.0000 *    0.38900    1.00000
    20  O     c     -4.1238 *     0.0000 *     0.0000 *    0.38900    1.00000
    21  Sn    c      2.0619 *     0.0000 *     4.1238 *    2.42000    1.00000
    22  Sn    c      2.0619 *     0.0000 *    -4.1238 *    2.42000    1.00000
    23  Sn    c      2.0619 *     4.1238 *     0.0000 *    2.42000    1.00000
    24  Sn    c      2.0619 *    -4.1238 *     0.0000 *    2.42000    1.00000
    25  Sn    c     -2.0619 *     0.0000 *     4.1238 *    2.42000    1.00000
    26  Sn    c     -2.0619 *     0.0000 *    -4.1238 *    2.42000    1.00000
    27  Sn    c     -2.0619 *     4.1238 *     0.0000 *    2.42000    1.00000
    28  Sn    c     -2.0619 *    -4.1238 *     0.0000 *    2.42000    1.00000
    29  O     c      2.0619 *    -4.1238 *    -2.0619 *    0.38900    1.00000
    30  O     c      2.0619 *    -4.1238 *     2.0619 *    0.38900    1.00000
    31  O     c      2.0619 *    -2.0619 *     4.1238 *    0.38900    1.00000
    32  O     c      2.0619 *    -2.0619 *    -4.1238 *    0.38900    1.00000
    33  O     c      2.0619 *     2.0619 *     4.1238 *    0.38900    1.00000
    34  O     c      2.0619 *     2.0619 *    -4.1238 *    0.38900    1.00000
    35  O     c      2.0619 *     4.1238 *    -2.0619 *    0.38900    1.00000
    36  O     c      2.0619 *     4.1238 *     2.0619 *    0.38900    1.00000
    37  Ba    c     -4.1238 *    -2.0619 *    -2.0619 *   -7.20300    1.00000
    38  Ba    c     -4.1238 *    -2.0619 *     2.0619 *   -7.20300    1.00000
    39  Ba    c     -4.1238 *     2.0619 *    -2.0619 *   -7.20300    1.00000
    40  Ba    c     -4.1238 *     2.0619 *     2.0619 *   -7.20300    1.00000
    41  O     c     -2.0619 *    -4.1238 *    -2.0619 *    0.38900    1.00000
    42  O     c     -2.0619 *    -4.1238 *     2.0619 *    0.38900    1.00000
    43  O     c     -2.0619 *    -2.0619 *     4.1238 *    0.38900    1.00000
    44  O     c     -2.0619 *    -2.0619 *    -4.1238 *    0.38900    1.00000
    45  Ba    c      4.1238 *    -2.0619 *    -2.0619 *   -7.20300    1.00000
    46  Ba    c      4.1238 *    -2.0619 *     2.0619 *   -7.20300    1.00000
    47  Ba    c      4.1238 *     2.0619 *    -2.0619 *   -7.20300    1.00000
    48  Ba    c      4.1238 *     2.0619 *     2.0619 *   -7.20300    1.00000
    49  O     c     -2.0619 *     2.0619 *     4.1238 *    0.38900    1.00000
    50  O     c     -2.0619 *     2.0619 *    -4.1238 *    0.38900    1.00000
    51  O     c     -2.0619 *     4.1238 *    -2.0619 *    0.38900    1.00000
    52  O     c     -2.0619 *     4.1238 *     2.0619 *    0.38900    1.00000
    53  O     c     -0.0000 *    -4.1238 *     4.1238 *    0.38900    1.00000
    54  O     c     -0.0000 *    -4.1238 *    -4.1238 *    0.38900    1.00000
    55  O     c      4.1238 *    -4.1238 *     0.0000 *    0.38900    1.00000
    56  O     c      4.1238 *     0.0000 *     4.1238 *    0.38900    1.00000
    57  O     c      4.1238 *     0.0000 *    -4.1238 *    0.38900    1.00000
    58  O     c     -0.0000 *     4.1238 *     4.1238 *    0.38900    1.00000
    59  O     c     -0.0000 *     4.1238 *    -4.1238 *    0.38900    1.00000
    60  O     c      4.1238 *     4.1238 *     0.0000 *    0.38900    1.00000
    61  O     c     -4.1238 *    -4.1238 *     0.0000 *    0.38900    1.00000
    62  O     c     -4.1238 *     0.0000 *     4.1238 *    0.38900    1.00000
    63  O     c     -4.1238 *     0.0000 *    -4.1238 *    0.38900    1.00000
    64  O     c     -4.1238 *     4.1238 *     0.0000 *    0.38900    1.00000
    65  Sn    c      2.0619 *     4.1238 *     4.1238 *    2.42000    1.00000
    66  Sn    c      2.0619 *     4.1238 *    -4.1238 *    2.42000    1.00000
    67  Sn    c      2.0619 *    -4.1238 *     4.1238 *    2.42000    1.00000
    68  Sn    c      2.0619 *    -4.1238 *    -4.1238 *    2.42000    1.00000
    69  Sn    c      6.1857 *     0.0000 *     0.0000 *    2.42000    1.00000
    70  Sn    c     -2.0619 *     4.1238 *     4.1238 *    2.42000    1.00000
    71  Sn    c     -2.0619 *     4.1238 *    -4.1238 *    2.42000    1.00000
    72  Sn    c     -2.0619 *    -4.1238 *     4.1238 *    2.42000    1.00000
    73  Sn    c     -2.0619 *    -4.1238 *    -4.1238 *    2.42000    1.00000
    74  Sn    c     -6.1857 *     0.0000 *     0.0000 *    2.42000    1.00000
    75  O     c      6.1857 *    -2.0619 *     0.0000 *    0.38900    1.00000
    76  O     c      2.0619 *    -6.1857 *     0.0000 *    0.38900    1.00000
    77  O     c      6.1857 *     2.0619 *     0.0000 *    0.38900    1.00000
    78  O     c      6.1857 *     0.0000 *    -2.0619 *    0.38900    1.00000
    79  O     c      6.1857 *     0.0000 *     2.0619 *    0.38900    1.00000
    80  O     c      2.0619 *     0.0000 *     6.1857 *    0.38900    1.00000
    81  O     c      2.0619 *     0.0000 *    -6.1857 *    0.38900    1.00000
    82  Ba    c      0.0000 *    -2.0619 *     6.1857 *   -7.20300    1.00000
    83  Ba    c      0.0000 *    -2.0619 *    -6.1857 *   -7.20300    1.00000
    84  Ba    c      0.0000 *     2.0619 *     6.1857 *   -7.20300    1.00000
    85  Ba    c      0.0000 *     2.0619 *    -6.1857 *   -7.20300    1.00000
    86  Ba    c      0.0000 *     6.1857 *    -2.0619 *   -7.20300    1.00000
    87  Ba    c      0.0000 *     6.1857 *     2.0619 *   -7.20300    1.00000
    88  Ba    c      0.0000 *    -6.1857 *    -2.0619 *   -7.20300    1.00000
    89  Ba    c      0.0000 *    -6.1857 *     2.0619 *   -7.20300    1.00000
    90  O     c     -2.0619 *    -6.1857 *     0.0000 *    0.38900    1.00000
    91  O     c      2.0619 *     6.1857 *     0.0000 *    0.38900    1.00000
    92  O     c     -2.0619 *     0.0000 *     6.1857 *    0.38900    1.00000
    93  O     c     -2.0619 *     0.0000 *    -6.1857 *    0.38900    1.00000
    94  O     c     -2.0619 *     6.1857 *     0.0000 *    0.38900    1.00000
    95  O     c     -6.1857 *    -2.0619 *     0.0000 *    0.38900    1.00000
    96  O     c     -6.1857 *     2.0619 *     0.0000 *    0.38900    1.00000
    97  O     c     -6.1857 *     0.0000 *    -2.0619 *    0.38900    1.00000
    98  O     c     -6.1857 *     0.0000 *     2.0619 *    0.38900    1.00000
    99  O     c      4.1238 *    -4.1238 *     4.1238 *    0.38900    1.00000
   100  O     c      4.1238 *    -4.1238 *    -4.1238 *    0.38900    1.00000
   101  O     c      4.1238 *     4.1238 *     4.1238 *    0.38900    1.00000
   102  O     c      4.1238 *     4.1238 *    -4.1238 *    0.38900    1.00000
   103  O     c     -4.1238 *    -4.1238 *     4.1238 *    0.38900    1.00000
   104  O     c     -4.1238 *    -4.1238 *    -4.1238 *    0.38900    1.00000
   105  O     c     -4.1238 *     4.1238 *     4.1238 *    0.38900    1.00000
   106  O     c     -4.1238 *     4.1238 *    -4.1238 *    0.38900    1.00000
   107  Sn    c      6.1857 *     0.0000 *     4.1238 *    2.42000    1.00000
   108  Sn    c      6.1857 *     0.0000 *    -4.1238 *    2.42000    1.00000
   109  Sn    c      6.1857 *     4.1238 *     0.0000 *    2.42000    1.00000
   110  Sn    c      6.1857 *    -4.1238 *     0.0000 *    2.42000    1.00000
   111  Sn    c     -6.1857 *     0.0000 *     4.1238 *    2.42000    1.00000
   112  Sn    c     -6.1857 *     0.0000 *    -4.1238 *    2.42000    1.00000
   113  Sn    c     -6.1857 *     4.1238 *     0.0000 *    2.42000    1.00000
   114  Sn    c     -6.1857 *    -4.1238 *     0.0000 *    2.42000    1.00000
   115  O     c      6.1857 *    -2.0619 *     4.1238 *    0.38900    1.00000
   116  O     c      6.1857 *    -2.0619 *    -4.1238 *    0.38900    1.00000
   117  O     c      6.1857 *    -4.1238 *    -2.0619 *    0.38900    1.00000
   118  O     c      6.1857 *    -4.1238 *     2.0619 *    0.38900    1.00000
   119  O     c      2.0619 *    -6.1857 *     4.1238 *    0.38900    1.00000
   120  O     c      2.0619 *    -6.1857 *    -4.1238 *    0.38900    1.00000
   121  O     c      6.1857 *     2.0619 *     4.1238 *    0.38900    1.00000
   122  O     c      6.1857 *     2.0619 *    -4.1238 *    0.38900    1.00000
   123  O     c      2.0619 *    -4.1238 *     6.1857 *    0.38900    1.00000
   124  O     c      2.0619 *    -4.1238 *    -6.1857 *    0.38900    1.00000
   125  O     c      6.1857 *     4.1238 *    -2.0619 *    0.38900    1.00000
   126  O     c      6.1857 *     4.1238 *     2.0619 *    0.38900    1.00000
   127  O     c     -2.0619 *    -6.1857 *     4.1238 *    0.38900    1.00000
   128  O     c     -2.0619 *    -6.1857 *    -4.1238 *    0.38900    1.00000
   129  O     c      2.0619 *     6.1857 *     4.1238 *    0.38900    1.00000
   130  O     c      2.0619 *     6.1857 *    -4.1238 *    0.38900    1.00000
   131  O     c      2.0619 *     4.1238 *     6.1857 *    0.38900    1.00000
   132  O     c      2.0619 *     4.1238 *    -6.1857 *    0.38900    1.00000
   133  Ba    c     -4.1238 *    -2.0619 *     6.1857 *   -7.20300    1.00000
   134  Ba    c     -4.1238 *    -2.0619 *    -6.1857 *   -7.20300    1.00000
   135  Ba    c     -4.1238 *     2.0619 *     6.1857 *   -7.20300    1.00000
   136  Ba    c     -4.1238 *     2.0619 *    -6.1857 *   -7.20300    1.00000
   137  O     c     -2.0619 *    -4.1238 *     6.1857 *    0.38900    1.00000
   138  O     c     -2.0619 *    -4.1238 *    -6.1857 *    0.38900    1.00000
   139  Ba    c      4.1238 *    -2.0619 *     6.1857 *   -7.20300    1.00000
   140  Ba    c      4.1238 *    -2.0619 *    -6.1857 *   -7.20300    1.00000
   141  Ba    c      4.1238 *     2.0619 *     6.1857 *   -7.20300    1.00000
   142  Ba    c      4.1238 *     2.0619 *    -6.1857 *   -7.20300    1.00000
   143  Ba    c      4.1238 *     6.1857 *    -2.0619 *   -7.20300    1.00000
   144  Ba    c      4.1238 *     6.1857 *     2.0619 *   -7.20300    1.00000
   145  Ba    c      4.1238 *    -6.1857 *    -2.0619 *   -7.20300    1.00000
   146  Ba    c      4.1238 *    -6.1857 *     2.0619 *   -7.20300    1.00000
   147  Ba    c     -4.1238 *     6.1857 *    -2.0619 *   -7.20300    1.00000
   148  Ba    c     -4.1238 *     6.1857 *     2.0619 *   -7.20300    1.00000
   149  Ba    c     -4.1238 *    -6.1857 *    -2.0619 *   -7.20300    1.00000
   150  Ba    c     -4.1238 *    -6.1857 *     2.0619 *   -7.20300    1.00000
   151  O     c     -2.0619 *     4.1238 *     6.1857 *    0.38900    1.00000
   152  O     c     -2.0619 *     4.1238 *    -6.1857 *    0.38900    1.00000
   153  O     c     -2.0619 *     6.1857 *     4.1238 *    0.38900    1.00000
   154  O     c     -2.0619 *     6.1857 *    -4.1238 *    0.38900    1.00000
   155  O     c     -6.1857 *    -2.0619 *     4.1238 *    0.38900    1.00000
   156  O     c     -6.1857 *    -2.0619 *    -4.1238 *    0.38900    1.00000
   157  O     c     -6.1857 *     2.0619 *     4.1238 *    0.38900    1.00000
   158  O     c     -6.1857 *     2.0619 *    -4.1238 *    0.38900    1.00000
   159  O     c     -6.1857 *    -4.1238 *    -2.0619 *    0.38900    1.00000
   160  O     c     -6.1857 *    -4.1238 *     2.0619 *    0.38900    1.00000
   161  O     c     -6.1857 *     4.1238 *    -2.0619 *    0.38900    1.00000
   162  O     c     -6.1857 *     4.1238 *     2.0619 *    0.38900    1.00000
   163  O     c     -0.0000 *     0.0000 *     8.2475 *    0.38900    1.00000
   164  O     c     -0.0000 *     0.0000 *    -8.2475 *    0.38900    1.00000
   165  O     c     -0.0000 *     8.2475 *     0.0000 *    0.38900    1.00000
   166  O     c     -0.0000 *    -8.2475 *     0.0000 *    0.38900    1.00000
   167  O     c      8.2475 *     0.0000 *     0.0000 *    0.38900    1.00000
   168  O     c     -8.2475 *     0.0000 *     0.0000 *    0.38900    1.00000
[...]
   314  O     s       0.000000      0.000000     -0.000000      0.000000
   315  O     s       0.000000      0.000000     -0.000000      0.000000
   316  O     s       0.000000      0.000000      0.000000      0.000000
   317  O     s       0.000000     -0.000000     -0.000000      0.000000
   318  O     s       0.000000     -0.000000      0.000000      0.000000
   319  O     s       0.000000     -0.000000      0.000000      0.000000
   320  O     s       0.000000     -0.000000     -0.000000      0.000000
   321  Ba    s       0.000000      0.000000      0.000000      0.000000
   322  Ba    s       0.000000      0.000000     -0.000000      0.000000
   323  Ba    s       0.000000     -0.000000      0.000000      0.000000
   324  Ba    s       0.000000     -0.000000     -0.000000      0.000000
   325  O     s      -0.000000      0.000000      0.000000      0.000000
   326  O     s      -0.000000      0.000000     -0.000000      0.000000
   327  O     s      -0.000000      0.000000     -0.000000      0.000000
   328  O     s      -0.000000      0.000000      0.000000      0.000000
   329  Ba    s      -0.000000      0.000000      0.000000      0.000000
   330  Ba    s      -0.000000      0.000000     -0.000000      0.000000
   331  Ba    s      -0.000000     -0.000000      0.000000      0.000000
   332  Ba    s      -0.000000     -0.000000     -0.000000      0.000000
   333  O     s      -0.000000     -0.000000     -0.000000      0.000000
   334  O     s      -0.000000     -0.000000      0.000000      0.000000
   335  O     s      -0.000000     -0.000000      0.000000      0.000000
   336  O     s      -0.000000     -0.000000     -0.000000      0.000000
   337  O     s      -0.000000     -0.000000      0.000000      0.000000
   338  O     s       0.000000     -0.000000     -0.000000      0.000000
   339  O     s      -0.000000      0.000000      0.000000      0.000000
   340  O     s      -0.000000      0.000000     -0.000000      0.000000
   341  O     s      -0.000000     -0.000000      0.000000      0.000000
   342  O     s      -0.000000      0.000000      0.000000      0.000000
   343  O     s       0.000000      0.000000     -0.000000      0.000000
   344  O     s      -0.000000     -0.000000      0.000000      0.000000
   345  O     s       0.000000      0.000000     -0.000000      0.000000
   346  O     s       0.000000     -0.000000     -0.000000      0.000000
   347  O     s       0.000000     -0.000000      0.000000      0.000000
   348  O     s       0.000000     -0.000000      0.000000      0.000000
   349  Sn    s      -0.000000     -0.000000     -0.000000      0.000000
   350  Sn    s      -0.000000     -0.000000      0.000000      0.000000
   351  Sn    s      -0.000000      0.000000     -0.000000      0.000000
   352  Sn    s      -0.000000      0.000000      0.000000      0.000000
   353  Sn    s      -0.000000     -0.000000     -0.000000      0.000000
   354  Sn    s       0.000000     -0.000000     -0.000000      0.000000
   355  Sn    s       0.000000     -0.000000      0.000000      0.000000
   356  Sn    s       0.000000      0.000000     -0.000000      0.000000
   357  Sn    s       0.000000      0.000000      0.000000      0.000000
   358  Sn    s       0.000000     -0.000000      0.000000      0.000000
   359  O     s       0.000000     -0.000000     -0.000000      0.000000
   360  O     s       0.000000     -0.000000     -0.000000      0.000000
   361  O     s       0.000000      0.000000      0.000000      0.000000
   362  O     s       0.000000     -0.000000     -0.000000      0.000000
   363  O     s       0.000000     -0.000000      0.000000      0.000000
   364  O     s       0.000000      0.000000      0.000000      0.000000
   365  O     s       0.000000     -0.000000     -0.000000      0.000000
   366  Ba    s       0.000000     -0.000000     -0.000000      0.000000
   367  Ba    s       0.000000     -0.000000      0.000000      0.000000
   368  Ba    s      -0.000000      0.000000     -0.000000      0.000000
   369  Ba    s      -0.000000      0.000000      0.000000      0.000000
   370  Ba    s       0.000000     -0.000000     -0.000000      0.000000
   371  Ba    s       0.000000     -0.000000      0.000000      0.000000
   372  Ba    s       0.000000      0.000000     -0.000000      0.000000
   373  Ba    s      -0.000000      0.000000      0.000000      0.000000
   374  O     s      -0.000000     -0.000000      0.000000      0.000000
   375  O     s       0.000000      0.000000     -0.000000      0.000000
   376  O     s      -0.000000     -0.000000      0.000000      0.000000
   377  O     s      -0.000000     -0.000000     -0.000000      0.000000
   378  O     s      -0.000000      0.000000      0.000000      0.000000
   379  O     s      -0.000000     -0.000000      0.000000      0.000000
   380  O     s      -0.000000      0.000000     -0.000000      0.000000
   381  O     s      -0.000000     -0.000000     -0.000000      0.000000
   382  O     s      -0.000000     -0.000000      0.000000      0.000000
   383  O     s      -0.000000      0.000000     -0.000000      0.000000
   384  O     s      -0.000000      0.000000      0.000000      0.000000
   385  O     s      -0.000000     -0.000000     -0.000000      0.000000
   386  O     s      -0.000000     -0.000000      0.000000      0.000000
   387  O     s       0.000000      0.000000     -0.000000      0.000000
   388  O     s       0.000000      0.000000      0.000000      0.000000
   389  O     s       0.000000     -0.000000     -0.000000      0.000000
   390  O     s       0.000000     -0.000000      0.000000      0.000000
   391  Sn    s       0.000000      0.000000     -0.000000      0.000000
   392  Sn    s       0.000000     -0.000000      0.000000      0.000000
   393  Sn    s       0.000000     -0.000000     -0.000000      0.000000
   394  Sn    s       0.000000      0.000000     -0.000000      0.000000
   395  Sn    s      -0.000000      0.000000     -0.000000      0.000000
   396  Sn    s      -0.000000      0.000000      0.000000      0.000000
   397  Sn    s      -0.000000     -0.000000     -0.000000      0.000000
   398  Sn    s      -0.000000      0.000000      0.000000      0.000000
   399  O     s       0.000000      0.000000      0.000000      0.000000
   400  O     s       0.000000      0.000000     -0.000000      0.000000
   401  O     s       0.000000     -0.000000      0.000000      0.000000
   402  O     s       0.000000     -0.000000     -0.000000      0.000000
   403  O     s       0.000000     -0.000000      0.000000      0.000000
   404  O     s       0.000000     -0.000000     -0.000000      0.000000
   405  O     s       0.000000     -0.000000      0.000000      0.000000
   406  O     s       0.000000     -0.000000     -0.000000      0.000000
   407  O     s       0.000000     -0.000000      0.000000      0.000000
   408  O     s       0.000000     -0.000000     -0.000000      0.000000
   409  O     s       0.000000      0.000000      0.000000      0.000000
   410  O     s       0.000000      0.000000     -0.000000      0.000000
   411  O     s      -0.000000     -0.000000      0.000000      0.000000
   412  O     s      -0.000000     -0.000000     -0.000000      0.000000
   413  O     s       0.000000      0.000000      0.000000      0.000000
   414  O     s       0.000000      0.000000     -0.000000      0.000000
   415  O     s       0.000000      0.000000      0.000000      0.000000
   416  O     s       0.000000      0.000000     -0.000000      0.000000
   417  Ba    s      -0.000000     -0.000000     -0.000000      0.000000
   418  Ba    s      -0.000000     -0.000000      0.000000      0.000000
   419  Ba    s      -0.000000      0.000000     -0.000000      0.000000
   420  Ba    s      -0.000000      0.000000      0.000000      0.000000
   421  O     s      -0.000000     -0.000000      0.000000      0.000000
   422  O     s      -0.000000     -0.000000     -0.000000      0.000000
   423  Ba    s       0.000000     -0.000000     -0.000000      0.000000
   424  Ba    s       0.000000     -0.000000      0.000000      0.000000
   425  Ba    s       0.000000      0.000000     -0.000000      0.000000
   426  Ba    s       0.000000      0.000000      0.000000      0.000000
   427  Ba    s       0.000000     -0.000000     -0.000000      0.000000
   428  Ba    s       0.000000     -0.000000      0.000000      0.000000
   429  Ba    s       0.000000      0.000000     -0.000000      0.000000
   430  Ba    s       0.000000      0.000000      0.000000      0.000000
   431  Ba    s      -0.000000     -0.000000     -0.000000      0.000000
   432  Ba    s      -0.000000     -0.000000      0.000000      0.000000
   433  Ba    s      -0.000000      0.000000     -0.000000      0.000000
   434  Ba    s      -0.000000      0.000000      0.000000      0.000000
   435  O     s      -0.000000      0.000000      0.000000      0.000000
   436  O     s      -0.000000      0.000000     -0.000000      0.000000
   437  O     s      -0.000000      0.000000      0.000000      0.000000
   438  O     s      -0.000000      0.000000     -0.000000      0.000000
   439  O     s      -0.000000      0.000000      0.000000      0.000000
   440  O     s      -0.000000      0.000000     -0.000000      0.000000
   441  O     s      -0.000000     -0.000000      0.000000      0.000000
   442  O     s      -0.000000     -0.000000     -0.000000      0.000000
   443  O     s      -0.000000     -0.000000      0.000000      0.000000
   444  O     s      -0.000000     -0.000000     -0.000000      0.000000
   445  O     s      -0.000000      0.000000      0.000000      0.000000
   446  O     s      -0.000000      0.000000     -0.000000      0.000000
   447  O     s      -0.000000      0.000000     -0.000000      0.000000
   448  O     s      -0.000000     -0.000000      0.000000      0.000000
   449  O     s      -0.000000     -0.000000      0.000000      0.000000
   450  O     s      -0.000000      0.000000     -0.000000      0.000000
   451  O     s      -0.000000      0.000000      0.000000      0.000000
   452  O     s       0.000000     -0.000000     -0.000000      0.000000
   453  Sn    s       0.000000     -0.000000     -0.000000      0.000000
   454  Sn    s       0.000000     -0.000000      0.000000      0.000000
   455  Sn    s       0.000000     -0.000000      0.000000      0.000000
   456  Sn    s       0.000000      0.000000     -0.000000      0.000000
   457  Sn    s      -0.000000     -0.000000     -0.000000      0.000000
   458  Sn    s      -0.000000     -0.000000      0.000000      0.000000
   459  Sn    s      -0.000000      0.000000     -0.000000      0.000000
   460  Sn    s      -0.000000      0.000000      0.000000      0.000000
   461  Sn    s      -0.000000     -0.000000     -0.000000      0.000000
   462  Sn    s      -0.000000      0.000000      0.000000      0.000000
   463  Sn    s      -0.000000     -0.000000     -0.000000      0.000000
   464  Sn    s      -0.000000      0.000000      0.000000      0.000000
   465  Sn    s       0.000000     -0.000000     -0.000000      0.000000
   466  Sn    s       0.000000     -0.000000      0.000000      0.000000
   467  Sn    s       0.000000      0.000000     -0.000000      0.000000
   468  Sn    s       0.000000      0.000000      0.000000      0.000000
   469  O     s      -0.000000     -0.000000     -0.000000      0.000000
   470  O     s      -0.000000     -0.000000      0.000000      0.000000
   471  O     s      -0.000000      0.000000     -0.000000      0.000000
   472  Ba    s      -0.000000     -0.000000     -0.000000      0.000000
   473  Ba    s       0.000000     -0.000000      0.000000      0.000000
   474  Ba    s       0.000000      0.000000     -0.000000      0.000000
   475  Ba    s       0.000000      0.000000      0.000000      0.000000
   476  O     s       0.000000      0.000000      0.000000      0.000000
   477  O     s       0.000000      0.000000     -0.000000      0.000000
   478  O     s       0.000000     -0.000000      0.000000      0.000000
   479  O     s       0.000000     -0.000000     -0.000000      0.000000
   480  O     s      -0.000000      0.000000      0.000000      0.000000
   481  O     s       0.000000      0.000000      0.000000      0.000000
   482  O     s       0.000000      0.000000     -0.000000      0.000000
   483  O     s       0.000000     -0.000000      0.000000      0.000000
   484  O     s       0.000000     -0.000000     -0.000000      0.000000
   485  O     s      -0.000000      0.000000      0.000000      0.000000
   486  O     s      -0.000000      0.000000     -0.000000      0.000000
   487  O     s      -0.000000     -0.000000      0.000000      0.000000
   488  O     s      -0.000000     -0.000000     -0.000000      0.000000
   489  O     s       0.000000     -0.000000     -0.000000      0.000000
   490  O     s      -0.000000      0.000000      0.000000      0.000000
   491  O     s      -0.000000      0.000000     -0.000000      0.000000
   492  O     s      -0.000000     -0.000000      0.000000      0.000000
   493  O     s      -0.000000     -0.000000     -0.000000      0.000000
   494  Ba    s      -0.000000      0.000000      0.000000      0.000000
   495  Ba    s      -0.000000      0.000000     -0.000000      0.000000
   496  Ba    s      -0.000000     -0.000000      0.000000      0.000000
   497  Ba    s      -0.000000     -0.000000     -0.000000      0.000000
   498  Ba    s       0.000000      0.000000      0.000000      0.000000
   499  Ba    s       0.000000      0.000000     -0.000000      0.000000
   500  Ba    s       0.000000     -0.000000      0.000000      0.000000
   501  Ba    s       0.000000     -0.000000     -0.000000      0.000000
   502  O     s       0.000000     -0.000000      0.000000      0.000000
   503  O     s       0.000000      0.000000     -0.000000      0.000000
   504  O     s       0.000000      0.000000      0.000000      0.000000
   505  O     s      -0.000000      0.000000      0.000000      0.000000
   506  O     s      -0.000000      0.000000     -0.000000      0.000000
   507  O     s      -0.000000     -0.000000      0.000000      0.000000
   508  O     s      -0.000000     -0.000000     -0.000000      0.000000
   509  O     s       0.000000     -0.000000      0.000000      0.000000
   510  O     s       0.000000     -0.000000     -0.000000      0.000000
   511  O     s      -0.000000      0.000000     -0.000000      0.000000
   512  O     s      -0.000000     -0.000000      0.000000      0.000000
   513  O     s      -0.000000     -0.000000      0.000000      0.000000
   514  O     s      -0.000000      0.000000     -0.000000      0.000000
   515  O     s       0.000000     -0.000000      0.000000      0.000000
   516  O     s       0.000000     -0.000000     -0.000000      0.000000
   517  O     s       0.000000     -0.000000      0.000000      0.000000
   518  O     s      -0.000000      0.000000      0.000000      0.000000
   519  O     s      -0.000000      0.000000     -0.000000      0.000000
   520  O     s       0.000000      0.000000      0.000000      0.000000
   521  O     s       0.000000     -0.000000     -0.000000      0.000000
   522  O     s       0.000000     -0.000000      0.000000      0.000000
   523  O     s       0.000000     -0.000000     -0.000000      0.000000
   524  O     s       0.000000      0.000000     -0.000000      0.000000
   525  O     s      -0.000000      0.000000      0.000000      0.000000
   526  O     s      -0.000000      0.000000     -0.000000      0.000000
   527  O     s      -0.000000     -0.000000      0.000000      0.000000
   528  O     s      -0.000000      0.000000      0.000000      0.000000
   529  Sn    s      -0.000000     -0.000000     -0.000000      0.000000
   530  Sn    s      -0.000000     -0.000000      0.000000      0.000000
   531  Sn    s      -0.000000      0.000000     -0.000000      0.000000
   532  Sn    s      -0.000000      0.000000      0.000000      0.000000
   533  Sn    s       0.000000     -0.000000     -0.000000      0.000000
   534  Sn    s       0.000000     -0.000000      0.000000      0.000000
   535  Sn    s       0.000000      0.000000     -0.000000      0.000000
   536  Sn    s       0.000000      0.000000      0.000000      0.000000
   537  Sn    s      -0.000000     -0.000000     -0.000000      0.000000
   538  Sn    s      -0.000000     -0.000000      0.000000      0.000000
   539  Sn    s      -0.000000      0.000000     -0.000000      0.000000
   540  Sn    s      -0.000000      0.000000      0.000000      0.000000
   541  Sn    s       0.000000     -0.000000     -0.000000      0.000000
   542  Sn    s       0.000000     -0.000000      0.000000      0.000000
   543  Sn    s       0.000000      0.000000     -0.000000      0.000000
   544  Sn    s       0.000000      0.000000      0.000000      0.000000
   545  O     s       0.000000     -0.000000      0.000000      0.000000
   546  O     s       0.000000     -0.000000     -0.000000      0.000000
   547  O     s       0.000000     -0.000000      0.000000      0.000000
   548  O     s       0.000000     -0.000000     -0.000000      0.000000
   549  O     s       0.000000      0.000000      0.000000      0.000000
   550  O     s       0.000000      0.000000     -0.000000      0.000000
   551  O     s       0.000000      0.000000      0.000000      0.000000
   552  O     s       0.000000      0.000000     -0.000000      0.000000
   553  Ba    s      -0.000000     -0.000000     -0.000000      0.000000
   554  Ba    s      -0.000000     -0.000000      0.000000      0.000000
   555  Ba    s      -0.000000      0.000000     -0.000000      0.000000
   556  Ba    s      -0.000000      0.000000      0.000000      0.000000
   557  Ba    s       0.000000     -0.000000     -0.000000      0.000000
   558  Ba    s       0.000000     -0.000000      0.000000      0.000000
   559  Ba    s       0.000000      0.000000     -0.000000      0.000000
   560  Ba    s       0.000000      0.000000      0.000000      0.000000
   561  O     s      -0.000000     -0.000000      0.000000      0.000000
   562  O     s      -0.000000     -0.000000     -0.000000      0.000000
   563  O     s      -0.000000     -0.000000      0.000000      0.000000
   564  O     s      -0.000000     -0.000000     -0.000000      0.000000
   565  O     s      -0.000000      0.000000      0.000000      0.000000
   566  O     s      -0.000000      0.000000     -0.000000      0.000000
   567  O     s      -0.000000      0.000000      0.000000      0.000000
   568  O     s      -0.000000      0.000000     -0.000000      0.000000
--------------------------------------------------------------------------------


  Time to end of optimisation  =       91.2503 seconds


  Peak dynamic memory used =      53.79 MB 


  Timing analysis for GULP :

--------------------------------------------------------------------------------
  Task / Subroutine                                          Time (Seconds)
--------------------------------------------------------------------------------
  Calculation of reciprocal space energy and derivatives          0.0072
  Calculation of real space energy and derivatives                0.0217
  Calculation for region 1 energy and derivatives (2-b)          17.4894
  Calculation for region 2a energy                               64.2900
  Calculation for region 2b energy                                0.0023
  Calculation and manipulation of Hessian matrix                  0.0121
  Calculation of matrix inversion                                 1.7776
--------------------------------------------------------------------------------
  Total CPU time                                                 91.3420
--------------------------------------------------------------------------------


  Dump file written as 1.res


  Job Finished at 17:14.35  5th January    2024                               

